
     Program BANDS v.7.0 starts on 28Apr2022 at  6: 5: 9 

     This program is part of the open-source Quantum ESPRESSO suite
     for quantum simulation of materials; please cite
         "P. Giannozzi et al., J. Phys.:Condens. Matter 21 395502 (2009);
         "P. Giannozzi et al., J. Phys.:Condens. Matter 29 465901 (2017);
         "P. Giannozzi et al., J. Chem. Phys. 152 154105 (2020);
          URL http://www.quantum-espresso.org", 
     in publications or presentations arising from this work. More details at
     http://www.quantum-espresso.org/quote

     Parallel version (MPI), running on     8 processors

     MPI processes distributed on     1 nodes
     R & G space division:  proc/nbgrp/npool/nimage =       8
     1694 MiB available memory on the printing compute node when the environment starts
 

     Reading xml data from directory:

     ./tmp/mob2.save/

     IMPORTANT: XC functional enforced from input :
     Exchange-correlation= PBE
                           (   1   4   3   4   0   0   0)
     Any further DFT definition will be discarded
     Please, verify this is what you really want

 
     Parallelization info
     --------------------
     sticks:   dense  smooth     PW     G-vecs:    dense   smooth      PW
     Min          35      35     11                  507      507      97
     Max          36      36     12                  510      510     100
     Sum         283     283     91                 4071     4071     787
 
     Using Slab Decomposition
 
     Reading collected, re-writing distributed wavefunctions
     high-symmetry point:  0.0000 0.0000 0.0000   x coordinate   0.0000
     high-symmetry point:  0.0000 0.5774 0.0000   x coordinate   0.5774
     high-symmetry point:  0.3333 0.5774 0.0000   x coordinate   0.9107
     high-symmetry point:  0.0000 0.0000 0.0000   x coordinate   1.5774
     high-symmetry point:  0.0000 0.0000 0.4673   x coordinate   2.0447
     high-symmetry point:  0.0000 0.5774 0.4673   x coordinate   2.6220
     high-symmetry point:  0.3333 0.5774 0.4673   x coordinate   2.9554
     high-symmetry point:  0.0000 0.0000 0.4673   x coordinate   3.6220

     Plottable bands (eV) written to file mob2_bands.bands.gnu
     Bands written to file mob2_bands.bands

 **************************************************************************

                    xk=(   0.00000,   0.00000,   0.00000  )

     point group D_6h(6/mmm)
     there are 12 classes
     the character table:

       E     2C6   2C3   C2    3C2'  3C2'' i     2S3   2S6   s_h   3s_d  3s_v 
A_1g   1.00  1.00  1.00  1.00  1.00  1.00  1.00  1.00  1.00  1.00  1.00  1.00
A_2g   1.00  1.00  1.00  1.00 -1.00 -1.00  1.00  1.00  1.00  1.00 -1.00 -1.00
B_1g   1.00 -1.00  1.00 -1.00  1.00 -1.00  1.00 -1.00  1.00 -1.00  1.00 -1.00
B_2g   1.00 -1.00  1.00 -1.00 -1.00  1.00  1.00 -1.00  1.00 -1.00 -1.00  1.00
E_1g   2.00  1.00 -1.00 -2.00  0.00  0.00  2.00  1.00 -1.00 -2.00  0.00  0.00
E_2g   2.00 -1.00 -1.00  2.00  0.00  0.00  2.00 -1.00 -1.00  2.00  0.00  0.00
A_1u   1.00  1.00  1.00  1.00  1.00  1.00 -1.00 -1.00 -1.00 -1.00 -1.00 -1.00
A_2u   1.00  1.00  1.00  1.00 -1.00 -1.00 -1.00 -1.00 -1.00 -1.00  1.00  1.00
B_1u   1.00 -1.00  1.00 -1.00  1.00 -1.00 -1.00  1.00 -1.00  1.00 -1.00  1.00
B_2u   1.00 -1.00  1.00 -1.00 -1.00  1.00 -1.00  1.00 -1.00  1.00  1.00 -1.00
E_1u   2.00  1.00 -1.00 -2.00  0.00  0.00 -2.00 -1.00  1.00  2.00  0.00  0.00
E_2u   2.00 -1.00 -1.00  2.00  0.00  0.00 -2.00  1.00  1.00 -2.00  0.00  0.00

     the symmetry operations in each class and the name of the first element:

     E        1
                                                                 
     2C6      5    6
                                                                 
     2C3      7    8
                                                                 
     C2       2
                                                                 
     3C2'     4   12   11
                                                                 
     3C2''    3    9   10
                                                                 
     i       13
                                                                 
     2S3     17   18
                                                                 
     2S6     19   20
                                                                 
     s_h     14
                                                                 
     3s_d    16   24   23
                                                                 
     3s_v    15   21   22
                                                                 

     Band symmetry, D_6h(6/mmm) point group:

     e(  1 -  1) =    -37.13471  eV     1   --> A_1g           
     e(  2 -  2) =    -11.43439  eV     1   --> A_2u           
     e(  3 -  4) =    -10.79898  eV     2   --> E_1u           
     e(  5 -  5) =      8.36411  eV     1   --> A_1g           
     e(  6 -  6) =     18.39131  eV     1   --> A_1g           
     e(  7 -  8) =     18.75790  eV     2   --> E_2g           
     e(  9 -  9) =     20.91057  eV     1   --> A_2u           
     e( 10 - 11) =     25.09416  eV     2   --> E_1g           
     e( 12 - 13) =     28.01174  eV     2   --> E_2g           
     e( 14 - 15) =     29.80530  eV     2   --> E_1u           
     e( 16 - 16) =     30.77214  eV     1   --> B_2u           
     e( 17 - 17) =     34.11942  eV     1   --> B_1g           
     e( 18 - 18) =     36.68959  eV     1   --> A_1g           
     e( 19 - 20) =     42.74714  eV     2   --> E_2u           

 **************************************************************************

 **************************************************************************

                    xk=(   0.00000,   0.01443,   0.00000  )

     point group C_2v (mm2) 
     there are  4 classes
     the character table:

       E     C2    s_v   s_v' 
A_1    1.00  1.00  1.00  1.00
A_2    1.00  1.00 -1.00 -1.00
B_1    1.00 -1.00  1.00 -1.00
B_2    1.00 -1.00 -1.00  1.00

     the symmetry operations in each class and the name of the first element:

     E        1
                                                                 
     C2       2
                                                                 
     s_v      3
                                                                 
     s_v'     4
                                                                 

     Band symmetry, C_2v (mm2)  point group:

     e(  1 -  1) =    -37.13445  eV     1   --> A_1  D_1  S_1  
     e(  2 -  2) =    -11.43404  eV     1   --> B_2  D_4  S_4  
     e(  3 -  3) =    -10.80105  eV     1   --> A_1  D_1  S_1  
     e(  4 -  4) =    -10.79944  eV     1   --> B_1  D_3  S_3  
     e(  5 -  5) =      8.36769  eV     1   --> A_1  D_1  S_1  
     e(  6 -  6) =     18.39462  eV     1   --> A_1  D_1  S_1  
     e(  7 -  7) =     18.74980  eV     1   --> A_1  D_1  S_1  
     e(  8 -  8) =     18.76029  eV     1   --> B_1  D_3  S_3  
     e(  9 -  9) =     20.89736  eV     1   --> B_2  D_4  S_4  
     e( 10 - 10) =     25.09213  eV     1   --> A_2  D_2  S_2  
     e( 11 - 11) =     25.10892  eV     1   --> B_2  D_4  S_4  
     e( 12 - 12) =     27.97705  eV     1   --> A_1  D_1  S_1  
     e( 13 - 13) =     27.98190  eV     1   --> B_1  D_3  S_3  
     e( 14 - 14) =     29.83647  eV     1   --> A_1  D_1  S_1  
     e( 15 - 15) =     29.84272  eV     1   --> B_1  D_3  S_3  
     e( 16 - 16) =     30.78728  eV     1   --> A_1  D_1  S_1  
     e( 17 - 17) =     34.10202  eV     1   --> B_2  D_4  S_4  
     e( 18 - 18) =     36.69054  eV     1   --> A_1  D_1  S_1  
     e( 19 - 19) =     42.75489  eV     1   --> A_2  D_2  S_2  
     e( 20 - 20) =     42.77518  eV     1   --> B_2  D_4  S_4  

 **************************************************************************

 **************************************************************************

                    xk=(   0.00000,   0.02887,   0.00000  )

     Band symmetry, C_2v (mm2)  point group:

     e(  1 -  1) =    -37.13365  eV     1   --> A_1  D_1  S_1  
     e(  2 -  2) =    -11.43301  eV     1   --> B_2  D_4  S_4  
     e(  3 -  3) =    -10.80721  eV     1   --> A_1  D_1  S_1  
     e(  4 -  4) =    -10.80081  eV     1   --> B_1  D_3  S_3  
     e(  5 -  5) =      8.37942  eV     1   --> A_1  D_1  S_1  
     e(  6 -  6) =     18.40463  eV     1   --> A_1  D_1  S_1  
     e(  7 -  7) =     18.72522  eV     1   --> A_1  D_1  S_1  
     e(  8 -  8) =     18.76726  eV     1   --> B_1  D_3  S_3  
     e(  9 -  9) =     20.86294  eV     1   --> B_2  D_4  S_4  
     e( 10 - 10) =     25.08608  eV     1   --> A_2  D_2  S_2  
     e( 11 - 11) =     25.15261  eV     1   --> B_2  D_4  S_4  
     e( 12 - 12) =     27.87857  eV     1   --> A_1  D_1  S_1  
     e( 13 - 13) =     27.89915  eV     1   --> B_1  D_3  S_3  
     e( 14 - 14) =     29.92697  eV     1   --> A_1  D_1  S_1  
     e( 15 - 15) =     29.95212  eV     1   --> B_1  D_3  S_3  
     e( 16 - 16) =     30.83184  eV     1   --> A_1  D_1  S_1  
     e( 17 - 17) =     34.05049  eV     1   --> B_2  D_4  S_4  
     e( 18 - 18) =     36.69634  eV     1   --> A_1  D_1  S_1  
     e( 19 - 19) =     42.77919  eV     1   --> A_2  D_2  S_2  
     e( 20 - 20) =     42.85954  eV     1   --> B_2  D_4  S_4  

 **************************************************************************

 **************************************************************************

                    xk=(   0.00000,   0.04330,   0.00000  )

     Band symmetry, C_2v (mm2)  point group:

     e(  1 -  1) =    -37.13233  eV     1   --> A_1  D_1  S_1  
     e(  2 -  2) =    -11.43130  eV     1   --> B_2  D_4  S_4  
     e(  3 -  3) =    -10.81744  eV     1   --> A_1  D_1  S_1  
     e(  4 -  4) =    -10.80308  eV     1   --> B_1  D_3  S_3  
     e(  5 -  5) =      8.39942  eV     1   --> A_1  D_1  S_1  
     e(  6 -  6) =     18.42117  eV     1   --> A_1  D_1  S_1  
     e(  7 -  7) =     18.68508  eV     1   --> A_1  D_1  S_1  
     e(  8 -  8) =     18.77884  eV     1   --> B_1  D_3  S_3  
     e(  9 -  9) =     20.80866  eV     1   --> B_2  D_4  S_4  
     e( 10 - 10) =     25.07607  eV     1   --> A_2  D_2  S_2  
     e( 11 - 11) =     25.22362  eV     1   --> B_2  D_4  S_4  
     e( 12 - 12) =     27.73456  eV     1   --> A_1  D_1  S_1  
     e( 13 - 13) =     27.77880  eV     1   --> B_1  D_3  S_3  
     e( 14 - 14) =     30.05948  eV     1   --> A_1  D_1  S_1  
     e( 15 - 15) =     30.11694  eV     1   --> B_1  D_3  S_3  
     e( 16 - 16) =     30.90561  eV     1   --> A_1  D_1  S_1  
     e( 17 - 17) =     33.96742  eV     1   --> B_2  D_4  S_4  
     e( 18 - 18) =     36.70607  eV     1   --> A_1  D_1  S_1  
     e( 19 - 19) =     42.81960  eV     1   --> A_2  D_2  S_2  
     e( 20 - 20) =     42.99769  eV     1   --> B_2  D_4  S_4  

 **************************************************************************

 **************************************************************************

                    xk=(   0.00000,   0.05774,   0.00000  )

     Band symmetry, C_2v (mm2)  point group:

     e(  1 -  1) =    -37.13047  eV     1   --> A_1  D_1  S_1  
     e(  2 -  2) =    -11.42891  eV     1   --> B_2  D_4  S_4  
     e(  3 -  3) =    -10.83164  eV     1   --> A_1  D_1  S_1  
     e(  4 -  4) =    -10.80624  eV     1   --> B_1  D_3  S_3  
     e(  5 -  5) =      8.42669  eV     1   --> A_1  D_1  S_1  
     e(  6 -  6) =     18.44388  eV     1   --> A_1  D_1  S_1  
     e(  7 -  7) =     18.63036  eV     1   --> A_1  D_1  S_1  
     e(  8 -  8) =     18.79509  eV     1   --> B_1  D_3  S_3  
     e(  9 -  9) =     20.73417  eV     1   --> B_2  D_4  S_4  
     e( 10 - 10) =     25.06217  eV     1   --> A_2  D_2  S_2  
     e( 11 - 11) =     25.31927  eV     1   --> B_2  D_4  S_4  
     e( 12 - 12) =     27.56081  eV     1   --> A_1  D_1  S_1  
     e( 13 - 13) =     27.63692  eV     1   --> B_1  D_3  S_3  
     e( 14 - 14) =     30.22002  eV     1   --> A_1  D_1  S_1  
     e( 15 - 15) =     30.32208  eV     1   --> B_1  D_3  S_3  
     e( 16 - 16) =     31.00785  eV     1   --> A_1  D_1  S_1  
     e( 17 - 17) =     33.85659  eV     1   --> B_2  D_4  S_4  
     e( 18 - 18) =     36.71993  eV     1   --> A_1  D_1  S_1  
     e( 19 - 19) =     42.87611  eV     1   --> A_2  D_2  S_2  
     e( 20 - 20) =     43.18607  eV     1   --> B_2  D_4  S_4  

 **************************************************************************

 **************************************************************************

                    xk=(   0.00000,   0.07217,   0.00000  )

     Band symmetry, C_2v (mm2)  point group:

     e(  1 -  1) =    -37.12810  eV     1   --> A_1  D_1  S_1  
     e(  2 -  2) =    -11.42587  eV     1   --> B_2  D_4  S_4  
     e(  3 -  3) =    -10.84971  eV     1   --> A_1  D_1  S_1  
     e(  4 -  4) =    -10.81027  eV     1   --> B_1  D_3  S_3  
     e(  5 -  5) =      8.46167  eV     1   --> A_1  D_1  S_1  
     e(  6 -  6) =     18.47204  eV     1   --> A_1  D_1  S_1  
     e(  7 -  7) =     18.56235  eV     1   --> A_1  D_1  S_1  
     e(  8 -  8) =     18.81567  eV     1   --> B_1  D_3  S_3  
     e(  9 -  9) =     20.64350  eV     1   --> B_2  D_4  S_4  
     e( 10 - 10) =     25.04452  eV     1   --> A_2  D_2  S_2  
     e( 11 - 11) =     25.43649  eV     1   --> B_2  D_4  S_4  
     e( 12 - 12) =     27.36883  eV     1   --> A_1  D_1  S_1  
     e( 13 - 13) =     27.48415  eV     1   --> B_1  D_3  S_3  
     e( 14 - 14) =     30.39828  eV     1   --> A_1  D_1  S_1  
     e( 15 - 15) =     30.55645  eV     1   --> B_1  D_3  S_3  
     e( 16 - 16) =     31.13624  eV     1   --> A_1  D_1  S_1  
     e( 17 - 17) =     33.72227  eV     1   --> B_2  D_4  S_4  
     e( 18 - 18) =     36.73721  eV     1   --> A_1  D_1  S_1  
     e( 19 - 19) =     42.94848  eV     1   --> A_2  D_2  S_2  
     e( 20 - 20) =     43.42048  eV     1   --> B_2  D_4  S_4  

 **************************************************************************

 **************************************************************************

                    xk=(   0.00000,   0.08660,   0.00000  )

     Band symmetry, C_2v (mm2)  point group:

     e(  1 -  1) =    -37.12523  eV     1   --> A_1  D_1  S_1  
     e(  2 -  2) =    -11.42219  eV     1   --> B_2  D_4  S_4  
     e(  3 -  3) =    -10.87152  eV     1   --> A_1  D_1  S_1  
     e(  4 -  4) =    -10.81513  eV     1   --> B_1  D_3  S_3  
     e(  5 -  5) =      8.50414  eV     1   --> A_1  D_1  S_1  
     e(  6 -  6) =     18.47513  eV     1   --> A_1  D_1  S_1  
     e(  7 -  7) =     18.51157  eV     1   --> A_1  D_1  S_1  
     e(  8 -  8) =     18.84048  eV     1   --> B_1  D_3  S_3  
     e(  9 -  9) =     20.53946  eV     1   --> B_2  D_4  S_4  
     e( 10 - 10) =     25.02327  eV     1   --> A_2  D_2  S_2  
     e( 11 - 11) =     25.57195  eV     1   --> B_2  D_4  S_4  
     e( 12 - 12) =     27.16704  eV     1   --> A_1  D_1  S_1  
     e( 13 - 13) =     27.32774  eV     1   --> B_1  D_3  S_3  
     e( 14 - 14) =     30.58495  eV     1   --> A_1  D_1  S_1  
     e( 15 - 15) =     30.81335  eV     1   --> B_1  D_3  S_3  
     e( 16 - 16) =     31.28855  eV     1   --> A_1  D_1  S_1  
     e( 17 - 17) =     33.56934  eV     1   --> B_2  D_4  S_4  
     e( 18 - 18) =     36.75741  eV     1   --> A_1  D_1  S_1  
     e( 19 - 19) =     43.03651  eV     1   --> A_2  D_2  S_2  
     e( 20 - 20) =     43.69633  eV     1   --> B_2  D_4  S_4  

 **************************************************************************

 **************************************************************************

                    xk=(   0.00000,   0.10104,   0.00000  )

     Band symmetry, C_2v (mm2)  point group:

     e(  1 -  1) =    -37.12188  eV     1   --> A_1  D_1  S_1  
     e(  2 -  2) =    -11.41790  eV     1   --> B_2  D_4  S_4  
     e(  3 -  3) =    -10.89689  eV     1   --> A_1  D_1  S_1  
     e(  4 -  4) =    -10.82080  eV     1   --> B_1  D_3  S_3  
     e(  5 -  5) =      8.55386  eV     1   --> A_1  D_1  S_1  
     e(  6 -  6) =     18.38438  eV     1   --> A_1  D_1  S_1  
     e(  7 -  7) =     18.54795  eV     1   --> A_1  D_1  S_1  
     e(  8 -  8) =     18.86883  eV     1   --> B_1  D_3  S_3  
     e(  9 -  9) =     20.42492  eV     1   --> B_2  D_4  S_4  
     e( 10 - 10) =     24.99862  eV     1   --> A_2  D_2  S_2  
     e( 11 - 11) =     25.72223  eV     1   --> B_2  D_4  S_4  
     e( 12 - 12) =     26.96181  eV     1   --> A_1  D_1  S_1  
     e( 13 - 13) =     27.17237  eV     1   --> B_1  D_3  S_3  
     e( 14 - 14) =     30.77657  eV     1   --> A_1  D_1  S_1  
     e( 15 - 15) =     31.08709  eV     1   --> B_1  D_3  S_3  
     e( 16 - 16) =     31.46273  eV     1   --> A_1  D_1  S_1  
     e( 17 - 17) =     33.40409  eV     1   --> B_2  D_4  S_4  
     e( 18 - 18) =     36.77994  eV     1   --> A_1  D_1  S_1  
     e( 19 - 19) =     43.14009  eV     1   --> A_2  D_2  S_2  
     e( 20 - 20) =     44.00905  eV     1   --> B_2  D_4  S_4  

 **************************************************************************

 **************************************************************************

                    xk=(   0.00000,   0.11547,   0.00000  )

     Band symmetry, C_2v (mm2)  point group:

     e(  1 -  1) =    -37.11807  eV     1   --> A_1  D_1  S_1  
     e(  2 -  2) =    -11.41301  eV     1   --> B_2  D_4  S_4  
     e(  3 -  3) =    -10.92564  eV     1   --> A_1  D_1  S_1  
     e(  4 -  4) =    -10.82725  eV     1   --> B_1  D_3  S_3  
     e(  5 -  5) =      8.61073  eV     1   --> A_1  D_1  S_1  
     e(  6 -  6) =     18.27931  eV     1   --> A_1  D_1  S_1  
     e(  7 -  7) =     18.59124  eV     1   --> A_1  D_1  S_1  
     e(  8 -  8) =     18.90054  eV     1   --> B_1  D_3  S_3  
     e(  9 -  9) =     20.30203  eV     1   --> B_2  D_4  S_4  
     e( 10 - 10) =     24.97077  eV     1   --> A_2  D_2  S_2  
     e( 11 - 11) =     25.88397  eV     1   --> B_2  D_4  S_4  
     e( 12 - 12) =     26.75480  eV     1   --> A_1  D_1  S_1  
     e( 13 - 13) =     27.02132  eV     1   --> B_1  D_3  S_3  
     e( 14 - 14) =     30.96976  eV     1   --> A_1  D_1  S_1  
     e( 15 - 15) =     31.37492  eV     1   --> B_1  D_3  S_3  
     e( 16 - 16) =     31.65685  eV     1   --> A_1  D_1  S_1  
     e( 17 - 17) =     33.22873  eV     1   --> B_2  D_4  S_4  
     e( 18 - 18) =     36.80390  eV     1   --> A_1  D_1  S_1  
     e( 19 - 19) =     43.25863  eV     1   --> A_2  D_2  S_2  
     e( 20 - 20) =     44.35421  eV     1   --> B_2  D_4  S_4  

 **************************************************************************

 **************************************************************************

                    xk=(   0.00000,   0.12990,   0.00000  )

     Band symmetry, C_2v (mm2)  point group:

     e(  1 -  1) =    -37.11381  eV     1   --> A_1  D_1  S_1  
     e(  2 -  2) =    -11.40755  eV     1   --> B_2  D_4  S_4  
     e(  3 -  3) =    -10.95756  eV     1   --> A_1  D_1  S_1  
     e(  4 -  4) =    -10.83441  eV     1   --> B_1  D_3  S_3  
     e(  5 -  5) =      8.67465  eV     1   --> A_1  D_1  S_1  
     e(  6 -  6) =     18.16495  eV     1   --> A_1  D_1  S_1  
     e(  7 -  7) =     18.63826  eV     1   --> A_1  D_1  S_1  
     e(  8 -  8) =     18.93560  eV     1   --> B_1  D_3  S_3  
     e(  9 -  9) =     20.17327  eV     1   --> B_2  D_4  S_4  
     e( 10 - 10) =     24.93997  eV     1   --> A_2  D_2  S_2  
     e( 11 - 11) =     26.05397  eV     1   --> B_2  D_4  S_4  
     e( 12 - 12) =     26.55127  eV     1   --> A_1  D_1  S_1  
     e( 13 - 13) =     26.87746  eV     1   --> B_1  D_3  S_3  
     e( 14 - 14) =     31.16451  eV     1   --> A_1  D_1  S_1  
     e( 15 - 15) =     31.67492  eV     1   --> B_1  D_3  S_3  
     e( 16 - 16) =     31.87000  eV     1   --> A_1  D_1  S_1  
     e( 17 - 17) =     33.05058  eV     1   --> B_2  D_4  S_4  
     e( 18 - 18) =     36.82850  eV     1   --> A_1  D_1  S_1  
     e( 19 - 19) =     43.39239  eV     1   --> A_2  D_2  S_2  
     e( 20 - 20) =     44.72813  eV     1   --> B_2  D_4  S_4  

 **************************************************************************

 **************************************************************************

                    xk=(   0.00000,   0.14434,   0.00000  )

     Band symmetry, C_2v (mm2)  point group:

     e(  1 -  1) =    -37.10915  eV     1   --> A_1  D_1  S_1  
     e(  2 -  2) =    -11.40156  eV     1   --> B_2  D_4  S_4  
     e(  3 -  3) =    -10.99241  eV     1   --> A_1  D_1  S_1  
     e(  4 -  4) =    -10.84226  eV     1   --> B_1  D_3  S_3  
     e(  5 -  5) =      8.74521  eV     1   --> A_1  D_1  S_1  
     e(  6 -  6) =     18.04128  eV     1   --> A_1  D_1  S_1  
     e(  7 -  7) =     18.68787  eV     1   --> A_1  D_1  S_1  
     e(  8 -  8) =     18.97279  eV     1   --> B_1  D_3  S_3  
     e(  9 -  9) =     20.04021  eV     1   --> B_2  D_4  S_4  
     e( 10 - 10) =     24.90647  eV     1   --> A_2  D_2  S_2  
     e( 11 - 11) =     26.22886  eV     1   --> B_2  D_4  S_4  
     e( 12 - 12) =     26.35349  eV     1   --> A_1  D_1  S_1  
     e( 13 - 13) =     26.74100  eV     1   --> B_1  D_3  S_3  
     e( 14 - 14) =     31.35232  eV     1   --> A_1  D_1  S_1  
     e( 15 - 15) =     31.98563  eV     1   --> B_1  D_3  S_3  
     e( 16 - 16) =     32.10123  eV     1   --> A_1  D_1  S_1  
     e( 17 - 17) =     32.87160  eV     1   --> B_2  D_4  S_4  
     e( 18 - 18) =     36.85254  eV     1   --> A_1  D_1  S_1  
     e( 19 - 19) =     43.54013  eV     1   --> A_2  D_2  S_2  
     e( 20 - 20) =     45.12623  eV     1   --> B_2  D_4  S_4  

 **************************************************************************

 **************************************************************************

                    xk=(   0.00000,   0.15877,   0.00000  )

     Band symmetry, C_2v (mm2)  point group:

     e(  1 -  1) =    -37.10410  eV     1   --> A_1  D_1  S_1  
     e(  2 -  2) =    -11.39508  eV     1   --> B_2  D_4  S_4  
     e(  3 -  3) =    -11.02993  eV     1   --> A_1  D_1  S_1  
     e(  4 -  4) =    -10.85074  eV     1   --> B_1  D_3  S_3  
     e(  5 -  5) =      8.82227  eV     1   --> A_1  D_1  S_1  
     e(  6 -  6) =     17.91021  eV     1   --> A_1  D_1  S_1  
     e(  7 -  7) =     18.73896  eV     1   --> A_1  D_1  S_1  
     e(  8 -  8) =     19.01199  eV     1   --> B_1  D_3  S_3  
     e(  9 -  9) =     19.90460  eV     1   --> B_2  D_4  S_4  
     e( 10 - 10) =     24.87054  eV     1   --> A_2  D_2  S_2  
     e( 11 - 11) =     26.16424  eV     1   --> A_1  D_1  S_1  
     e( 12 - 12) =     26.40544  eV     1   --> B_2  D_4  S_4  
     e( 13 - 13) =     26.61383  eV     1   --> B_1  D_3  S_3  
     e( 14 - 14) =     31.53349  eV     1   --> A_1  D_1  S_1  
     e( 15 - 15) =     32.30599  eV     1   --> B_1  D_3  S_3  
     e( 16 - 16) =     32.35029  eV     1   --> A_1  D_1  S_1  
     e( 17 - 17) =     32.69747  eV     1   --> B_2  D_4  S_4  
     e( 18 - 18) =     36.87485  eV     1   --> A_1  D_1  S_1  
     e( 19 - 19) =     43.70189  eV     1   --> A_2  D_2  S_2  
     e( 20 - 20) =     45.54535  eV     1   --> B_2  D_4  S_4  

 **************************************************************************

 **************************************************************************

                    xk=(   0.00000,   0.17321,   0.00000  )

     Band symmetry, C_2v (mm2)  point group:

     e(  1 -  1) =    -37.09870  eV     1   --> A_1  D_1  S_1  
     e(  2 -  2) =    -11.38813  eV     1   --> B_2  D_4  S_4  
     e(  3 -  3) =    -11.06987  eV     1   --> A_1  D_1  S_1  
     e(  4 -  4) =    -10.85979  eV     1   --> B_1  D_3  S_3  
     e(  5 -  5) =      8.90558  eV     1   --> A_1  D_1  S_1  
     e(  6 -  6) =     17.77285  eV     1   --> A_1  D_1  S_1  
     e(  7 -  7) =     18.79029  eV     1   --> A_1  D_1  S_1  
     e(  8 -  8) =     19.05268  eV     1   --> B_1  D_3  S_3  
     e(  9 -  9) =     19.76776  eV     1   --> B_2  D_4  S_4  
     e( 10 - 10) =     24.83246  eV     1   --> A_2  D_2  S_2  
     e( 11 - 11) =     25.98586  eV     1   --> A_1  D_1  S_1  
     e( 12 - 12) =     26.49689  eV     1   --> B_1  D_3  S_3  
     e( 13 - 13) =     26.58037  eV     1   --> B_2  D_4  S_4  
     e( 14 - 14) =     31.70601  eV     1   --> A_1  D_1  S_1  
     e( 15 - 15) =     32.53248  eV     1   --> B_2  D_4  S_4  
     e( 16 - 16) =     32.61659  eV     1   --> A_1  D_1  S_1  
     e( 17 - 17) =     32.63520  eV     1   --> B_1  D_3  S_3  
     e( 18 - 18) =     36.89406  eV     1   --> A_1  D_1  S_1  
     e( 19 - 19) =     43.87726  eV     1   --> A_2  D_2  S_2  
     e( 20 - 20) =     45.98212  eV     1   --> B_2  D_4  S_4  

 **************************************************************************

 **************************************************************************

                    xk=(   0.00000,   0.18764,   0.00000  )

     Band symmetry, C_2v (mm2)  point group:

     e(  1 -  1) =    -37.09297  eV     1   --> A_1  D_1  S_1  
     e(  2 -  2) =    -11.38077  eV     1   --> B_2  D_4  S_4  
     e(  3 -  3) =    -11.11194  eV     1   --> A_1  D_1  S_1  
     e(  4 -  4) =    -10.86935  eV     1   --> B_1  D_3  S_3  
     e(  5 -  5) =      8.99489  eV     1   --> A_1  D_1  S_1  
     e(  6 -  6) =     17.63024  eV     1   --> A_1  D_1  S_1  
     e(  7 -  7) =     18.84048  eV     1   --> A_1  D_1  S_1  
     e(  8 -  8) =     19.09431  eV     1   --> B_1  D_3  S_3  
     e(  9 -  9) =     19.63082  eV     1   --> B_2  D_4  S_4  
     e( 10 - 10) =     24.79254  eV     1   --> A_2  D_2  S_2  
     e( 11 - 11) =     25.82059  eV     1   --> A_1  D_1  S_1  
     e( 12 - 12) =     26.39091  eV     1   --> B_1  D_3  S_3  
     e( 13 - 13) =     26.75016  eV     1   --> B_2  D_4  S_4  
     e( 14 - 14) =     31.86850  eV     1   --> A_1  D_1  S_1  
     e( 15 - 15) =     32.38090  eV     1   --> B_2  D_4  S_4  
     e( 16 - 16) =     32.89922  eV     1   --> A_1  D_1  S_1  
     e( 17 - 17) =     32.97260  eV     1   --> B_1  D_3  S_3  
     e( 18 - 18) =     36.90871  eV     1   --> A_1  D_1  S_1  
     e( 19 - 19) =     44.06577  eV     1   --> A_2  D_2  S_2  
     e( 20 - 20) =     46.43319  eV     1   --> B_2  D_4  S_4  

 **************************************************************************

 **************************************************************************

                    xk=(   0.00000,   0.20207,   0.00000  )

     Band symmetry, C_2v (mm2)  point group:

     e(  1 -  1) =    -37.08695  eV     1   --> A_1  D_1  S_1  
     e(  2 -  2) =    -11.37304  eV     1   --> B_2  D_4  S_4  
     e(  3 -  3) =    -11.15586  eV     1   --> A_1  D_1  S_1  
     e(  4 -  4) =    -10.87936  eV     1   --> B_1  D_3  S_3  
     e(  5 -  5) =      9.08973  eV     1   --> A_1  D_1  S_1  
     e(  6 -  6) =     17.48333  eV     1   --> A_1  D_1  S_1  
     e(  7 -  7) =     18.88805  eV     1   --> A_1  D_1  S_1  
     e(  8 -  8) =     19.13630  eV     1   --> B_1  D_3  S_3  
     e(  9 -  9) =     19.49470  eV     1   --> B_2  D_4  S_4  
     e( 10 - 10) =     24.75106  eV     1   --> A_2  D_2  S_2  
     e( 11 - 11) =     25.67056  eV     1   --> A_1  D_1  S_1  
     e( 12 - 12) =     26.29648  eV     1   --> B_1  D_3  S_3  
     e( 13 - 13) =     26.91112  eV     1   --> B_2  D_4  S_4  
     e( 14 - 14) =     32.02008  eV     1   --> A_1  D_1  S_1  
     e( 15 - 15) =     32.24703  eV     1   --> B_2  D_4  S_4  
     e( 16 - 16) =     33.19693  eV     1   --> A_1  D_1  S_1  
     e( 17 - 17) =     33.31759  eV     1   --> B_1  D_3  S_3  
     e( 18 - 18) =     36.91518  eV     1   --> A_1  D_1  S_1  
     e( 19 - 19) =     44.26694  eV     1   --> A_2  D_2  S_2  
     e( 20 - 20) =     46.89498  eV     1   --> B_2  D_4  S_4  

 **************************************************************************

 **************************************************************************

                    xk=(   0.00000,   0.21651,   0.00000  )

     Band symmetry, C_2v (mm2)  point group:

     e(  1 -  1) =    -37.08068  eV     1   --> A_1  D_1  S_1  
     e(  2 -  2) =    -11.36498  eV     1   --> B_2  D_4  S_4  
     e(  3 -  3) =    -11.20132  eV     1   --> A_1  D_1  S_1  
     e(  4 -  4) =    -10.88977  eV     1   --> B_1  D_3  S_3  
     e(  5 -  5) =      9.19018  eV     1   --> A_1  D_1  S_1  
     e(  6 -  6) =     17.33296  eV     1   --> A_1  D_1  S_1  
     e(  7 -  7) =     18.93149  eV     1   --> A_1  D_1  S_1  
     e(  8 -  8) =     19.17808  eV     1   --> B_1  D_3  S_3  
     e(  9 -  9) =     19.36019  eV     1   --> B_2  D_4  S_4  
     e( 10 - 10) =     24.70833  eV     1   --> A_2  D_2  S_2  
     e( 11 - 11) =     25.53807  eV     1   --> A_1  D_1  S_1  
     e( 12 - 12) =     26.21409  eV     1   --> B_1  D_3  S_3  
     e( 13 - 13) =     27.05943  eV     1   --> B_2  D_4  S_4  
     e( 14 - 14) =     32.13515  eV     1   --> B_2  D_4  S_4  
     e( 15 - 15) =     32.16049  eV     1   --> A_1  D_1  S_1  
     e( 16 - 16) =     33.50826  eV     1   --> A_1  D_1  S_1  
     e( 17 - 17) =     33.66978  eV     1   --> B_1  D_3  S_3  
     e( 18 - 18) =     36.91592  eV     1   --> A_1  D_1  S_1  
     e( 19 - 19) =     44.48027  eV     1   --> A_2  D_2  S_2  
     e( 20 - 20) =     47.36336  eV     1   --> B_2  D_4  S_4  

 **************************************************************************

 **************************************************************************

                    xk=(   0.00000,   0.23094,   0.00000  )

     Band symmetry, C_2v (mm2)  point group:

     e(  1 -  1) =    -37.07419  eV     1   --> A_1  D_1  S_1  
     e(  2 -  2) =    -11.35663  eV     1   --> B_2  D_4  S_4  
     e(  3 -  3) =    -11.24802  eV     1   --> A_1  D_1  S_1  
     e(  4 -  4) =    -10.90049  eV     1   --> B_1  D_3  S_3  
     e(  5 -  5) =      9.29578  eV     1   --> A_1  D_1  S_1  
     e(  6 -  6) =     17.17991  eV     1   --> A_1  D_1  S_1  
     e(  7 -  7) =     18.96922  eV     1   --> A_1  D_1  S_1  
     e(  8 -  8) =     19.21910  eV     1   --> B_1  D_3  S_3  
     e(  9 -  9) =     19.22795  eV     1   --> B_2  D_4  S_4  
     e( 10 - 10) =     24.66465  eV     1   --> A_2  D_2  S_2  
     e( 11 - 11) =     25.42510  eV     1   --> A_1  D_1  S_1  
     e( 12 - 12) =     26.14407  eV     1   --> B_1  D_3  S_3  
     e( 13 - 13) =     27.19126  eV     1   --> B_2  D_4  S_4  
     e( 14 - 14) =     32.04943  eV     1   --> B_2  D_4  S_4  
     e( 15 - 15) =     32.28947  eV     1   --> A_1  D_1  S_1  
     e( 16 - 16) =     33.83154  eV     1   --> A_1  D_1  S_1  
     e( 17 - 17) =     34.02868  eV     1   --> B_1  D_3  S_3  
     e( 18 - 18) =     36.90760  eV     1   --> A_1  D_1  S_1  
     e( 19 - 19) =     44.70521  eV     1   --> A_2  D_2  S_2  
     e( 20 - 20) =     47.83303  eV     1   --> B_2  D_4  S_4  

 **************************************************************************

 **************************************************************************

                    xk=(   0.00000,   0.24537,   0.00000  )

     Band symmetry, C_2v (mm2)  point group:

     e(  1 -  1) =    -37.06752  eV     1   --> A_1  D_1  S_1  
     e(  2 -  2) =    -11.34806  eV     1   --> B_2  D_4  S_4  
     e(  3 -  3) =    -11.29565  eV     1   --> A_1  D_1  S_1  
     e(  4 -  4) =    -10.91147  eV     1   --> B_1  D_3  S_3  
     e(  5 -  5) =      9.40636  eV     1   --> A_1  D_1  S_1  
     e(  6 -  6) =     17.02531  eV     1   --> A_1  D_1  S_1  
     e(  7 -  7) =     18.99971  eV     1   --> A_1  D_1  S_1  
     e(  8 -  8) =     19.09857  eV     1   --> B_2  D_4  S_4  
     e(  9 -  9) =     19.25933  eV     1   --> B_1  D_3  S_3  
     e( 10 - 10) =     24.62032  eV     1   --> A_2  D_2  S_2  
     e( 11 - 11) =     25.33411  eV     1   --> A_1  D_1  S_1  
     e( 12 - 12) =     26.08673  eV     1   --> B_1  D_3  S_3  
     e( 13 - 13) =     27.30305  eV     1   --> B_2  D_4  S_4  
     e( 14 - 14) =     31.99411  eV     1   --> B_2  D_4  S_4  
     e( 15 - 15) =     32.40710  eV     1   --> A_1  D_1  S_1  
     e( 16 - 16) =     34.16498  eV     1   --> A_1  D_1  S_1  
     e( 17 - 17) =     34.39627  eV     1   --> B_1  D_3  S_3  
     e( 18 - 18) =     36.88904  eV     1   --> A_1  D_1  S_1  
     e( 19 - 19) =     44.94144  eV     1   --> A_2  D_2  S_2  
     e( 20 - 20) =     47.93189  eV     1   --> A_1  D_1  S_1  

 **************************************************************************

 **************************************************************************

                    xk=(   0.00000,   0.25981,   0.00000  )

     Band symmetry, C_2v (mm2)  point group:

     e(  1 -  1) =    -37.06072  eV     1   --> A_1  D_1  S_1  
     e(  2 -  2) =    -11.34392  eV     1   --> A_1  D_1  S_1  
     e(  3 -  3) =    -11.33931  eV     1   --> B_2  D_4  S_4  
     e(  4 -  4) =    -10.92263  eV     1   --> B_1  D_3  S_3  
     e(  5 -  5) =      9.52136  eV     1   --> A_1  D_1  S_1  
     e(  6 -  6) =     16.86882  eV     1   --> A_1  D_1  S_1  
     e(  7 -  7) =     18.97248  eV     1   --> B_2  D_4  S_4  
     e(  8 -  8) =     19.02159  eV     1   --> A_1  D_1  S_1  
     e(  9 -  9) =     19.29723  eV     1   --> B_1  D_3  S_3  
     e( 10 - 10) =     24.57563  eV     1   --> A_2  D_2  S_2  
     e( 11 - 11) =     25.26577  eV     1   --> A_1  D_1  S_1  
     e( 12 - 12) =     26.04204  eV     1   --> B_1  D_3  S_3  
     e( 13 - 13) =     27.39182  eV     1   --> B_2  D_4  S_4  
     e( 14 - 14) =     31.97128  eV     1   --> B_2  D_4  S_4  
     e( 15 - 15) =     32.51316  eV     1   --> A_1  D_1  S_1  
     e( 16 - 16) =     34.50654  eV     1   --> A_1  D_1  S_1  
     e( 17 - 17) =     34.76738  eV     1   --> B_1  D_3  S_3  
     e( 18 - 18) =     36.85946  eV     1   --> A_1  D_1  S_1  
     e( 19 - 19) =     45.18787  eV     1   --> A_2  D_2  S_2  
     e( 20 - 20) =     47.82911  eV     1   --> A_1  D_1  S_1  

 **************************************************************************

 **************************************************************************

                    xk=(   0.00000,   0.27424,   0.00000  )

     Band symmetry, C_2v (mm2)  point group:

     e(  1 -  1) =    -37.05382  eV     1   --> A_1  D_1  S_1  
     e(  2 -  2) =    -11.39250  eV     1   --> A_1  D_1  S_1  
     e(  3 -  3) =    -11.33044  eV     1   --> B_2  D_4  S_4  
     e(  4 -  4) =    -10.93391  eV     1   --> B_1  D_3  S_3  
     e(  5 -  5) =      9.64061  eV     1   --> A_1  D_1  S_1  
     e(  6 -  6) =     16.71141  eV     1   --> A_1  D_1  S_1  
     e(  7 -  7) =     18.85011  eV     1   --> B_2  D_4  S_4  
     e(  8 -  8) =     19.03374  eV     1   --> A_1  D_1  S_1  
     e(  9 -  9) =     19.33291  eV     1   --> B_1  D_3  S_3  
     e( 10 - 10) =     24.53087  eV     1   --> A_2  D_2  S_2  
     e( 11 - 11) =     25.22203  eV     1   --> A_1  D_1  S_1  
     e( 12 - 12) =     26.01005  eV     1   --> B_1  D_3  S_3  
     e( 13 - 13) =     27.45567  eV     1   --> B_2  D_4  S_4  
     e( 14 - 14) =     31.98330  eV     1   --> B_2  D_4  S_4  
     e( 15 - 15) =     32.60777  eV     1   --> A_1  D_1  S_1  
     e( 16 - 16) =     34.85366  eV     1   --> A_1  D_1  S_1  
     e( 17 - 17) =     35.14394  eV     1   --> B_1  D_3  S_3  
     e( 18 - 18) =     36.81895  eV     1   --> A_1  D_1  S_1  
     e( 19 - 19) =     45.44410  eV     1   --> A_2  D_2  S_2  
     e( 20 - 20) =     47.70313  eV     1   --> A_1  D_1  S_1  

 **************************************************************************

 **************************************************************************

                    xk=(   0.00000,   0.28868,   0.00000  )

     Band symmetry, C_2v (mm2)  point group:

     e(  1 -  1) =    -37.04687  eV     1   --> A_1  D_1  S_1  
     e(  2 -  2) =    -11.44111  eV     1   --> A_1  D_1  S_1  
     e(  3 -  3) =    -11.32150  eV     1   --> B_2  D_4  S_4  
     e(  4 -  4) =    -10.94524  eV     1   --> B_1  D_3  S_3  
     e(  5 -  5) =      9.76376  eV     1   --> A_1  D_1  S_1  
     e(  6 -  6) =     16.55350  eV     1   --> A_1  D_1  S_1  
     e(  7 -  7) =     18.73173  eV     1   --> B_2  D_4  S_4  
     e(  8 -  8) =     19.03535  eV     1   --> A_1  D_1  S_1  
     e(  9 -  9) =     19.36599  eV     1   --> B_1  D_3  S_3  
     e( 10 - 10) =     24.48630  eV     1   --> A_2  D_2  S_2  
     e( 11 - 11) =     25.20387  eV     1   --> A_1  D_1  S_1  
     e( 12 - 12) =     25.99059  eV     1   --> B_1  D_3  S_3  
     e( 13 - 13) =     27.49342  eV     1   --> B_2  D_4  S_4  
     e( 14 - 14) =     32.03002  eV     1   --> B_2  D_4  S_4  
     e( 15 - 15) =     32.69084  eV     1   --> A_1  D_1  S_1  
     e( 16 - 16) =     35.20190  eV     1   --> A_1  D_1  S_1  
     e( 17 - 17) =     35.52551  eV     1   --> B_1  D_3  S_3  
     e( 18 - 18) =     36.76929  eV     1   --> A_1  D_1  S_1  
     e( 19 - 19) =     45.70945  eV     1   --> A_2  D_2  S_2  
     e( 20 - 20) =     47.55510  eV     1   --> A_1  D_1  S_1  

 **************************************************************************

 **************************************************************************

                    xk=(   0.00000,   0.30311,   0.00000  )

     Band symmetry, C_2v (mm2)  point group:

     e(  1 -  1) =    -37.03992  eV     1   --> A_1  D_1  S_1  
     e(  2 -  2) =    -11.48944  eV     1   --> A_1  D_1  S_1  
     e(  3 -  3) =    -11.31254  eV     1   --> B_2  D_4  S_4  
     e(  4 -  4) =    -10.95654  eV     1   --> B_1  D_3  S_3  
     e(  5 -  5) =      9.88964  eV     1   --> A_1  D_1  S_1  
     e(  6 -  6) =     16.39551  eV     1   --> A_1  D_1  S_1  
     e(  7 -  7) =     18.61806  eV     1   --> B_2  D_4  S_4  
     e(  8 -  8) =     19.02611  eV     1   --> A_1  D_1  S_1  
     e(  9 -  9) =     19.39586  eV     1   --> B_1  D_3  S_3  
     e( 10 - 10) =     24.44221  eV     1   --> A_2  D_2  S_2  
     e( 11 - 11) =     25.21175  eV     1   --> A_1  D_1  S_1  
     e( 12 - 12) =     25.98323  eV     1   --> B_1  D_3  S_3  
     e( 13 - 13) =     27.50812  eV     1   --> B_2  D_4  S_4  
     e( 14 - 14) =     32.11190  eV     1   --> B_2  D_4  S_4  
     e( 15 - 15) =     32.76298  eV     1   --> A_1  D_1  S_1  
     e( 16 - 16) =     35.54391  eV     1   --> A_1  D_1  S_1  
     e( 17 - 17) =     35.91169  eV     1   --> B_1  D_3  S_3  
     e( 18 - 18) =     36.71591  eV     1   --> A_1  D_1  S_1  
     e( 19 - 19) =     45.98373  eV     1   --> A_2  D_2  S_2  
     e( 20 - 20) =     47.38585  eV     1   --> A_1  D_1  S_1  

 **************************************************************************

 **************************************************************************

                    xk=(   0.00000,   0.31754,   0.00000  )

     Band symmetry, C_2v (mm2)  point group:

     e(  1 -  1) =    -37.03300  eV     1   --> A_1  D_1  S_1  
     e(  2 -  2) =    -11.53720  eV     1   --> A_1  D_1  S_1  
     e(  3 -  3) =    -11.30363  eV     1   --> B_2  D_4  S_4  
     e(  4 -  4) =    -10.96774  eV     1   --> B_1  D_3  S_3  
     e(  5 -  5) =     10.01938  eV     1   --> A_1  D_1  S_1  
     e(  6 -  6) =     16.23769  eV     1   --> A_1  D_1  S_1  
     e(  7 -  7) =     18.50877  eV     1   --> B_2  D_4  S_4  
     e(  8 -  8) =     19.00595  eV     1   --> A_1  D_1  S_1  
     e(  9 -  9) =     19.42286  eV     1   --> B_1  D_3  S_3  
     e( 10 - 10) =     24.39884  eV     1   --> A_2  D_2  S_2  
     e( 11 - 11) =     25.24585  eV     1   --> A_1  D_1  S_1  
     e( 12 - 12) =     25.98759  eV     1   --> B_1  D_3  S_3  
     e( 13 - 13) =     27.49970  eV     1   --> B_2  D_4  S_4  
     e( 14 - 14) =     32.22460  eV     1   --> B_2  D_4  S_4  
     e( 15 - 15) =     32.82217  eV     1   --> A_1  D_1  S_1  
     e( 16 - 16) =     35.85906  eV     1   --> A_1  D_1  S_1  
     e( 17 - 17) =     36.30099  eV     1   --> B_1  D_3  S_3  
     e( 18 - 18) =     36.67994  eV     1   --> A_1  D_1  S_1  
     e( 19 - 19) =     46.26505  eV     1   --> A_2  D_2  S_2  
     e( 20 - 20) =     47.20730  eV     1   --> A_1  D_1  S_1  

 **************************************************************************

 **************************************************************************

                    xk=(   0.00000,   0.33198,   0.00000  )

     Band symmetry, C_2v (mm2)  point group:

     e(  1 -  1) =    -37.02616  eV     1   --> A_1  D_1  S_1  
     e(  2 -  2) =    -11.58411  eV     1   --> A_1  D_1  S_1  
     e(  3 -  3) =    -11.29481  eV     1   --> B_2  D_4  S_4  
     e(  4 -  4) =    -10.97878  eV     1   --> B_1  D_3  S_3  
     e(  5 -  5) =     10.15183  eV     1   --> A_1  D_1  S_1  
     e(  6 -  6) =     16.08029  eV     1   --> A_1  D_1  S_1  
     e(  7 -  7) =     18.40435  eV     1   --> B_2  D_4  S_4  
     e(  8 -  8) =     18.97543  eV     1   --> A_1  D_1  S_1  
     e(  9 -  9) =     19.44658  eV     1   --> B_1  D_3  S_3  
     e( 10 - 10) =     24.35644  eV     1   --> A_2  D_2  S_2  
     e( 11 - 11) =     25.30491  eV     1   --> A_1  D_1  S_1  
     e( 12 - 12) =     26.00312  eV     1   --> B_1  D_3  S_3  
     e( 13 - 13) =     27.47211  eV     1   --> B_2  D_4  S_4  
     e( 14 - 14) =     32.36478  eV     1   --> B_2  D_4  S_4  
     e( 15 - 15) =     32.86909  eV     1   --> A_1  D_1  S_1  
     e( 16 - 16) =     36.08171  eV     1   --> A_1  D_1  S_1  
     e( 17 - 17) =     36.69383  eV     1   --> B_1  D_3  S_3  
     e( 18 - 18) =     36.72489  eV     1   --> A_1  D_1  S_1  
     e( 19 - 19) =     46.55300  eV     1   --> A_2  D_2  S_2  
     e( 20 - 20) =     47.02014  eV     1   -->   ?

 **************************************************************************

 **************************************************************************

                    xk=(   0.00000,   0.34641,   0.00000  )

     Band symmetry, C_2v (mm2)  point group:

     e(  1 -  1) =    -37.01942  eV     1   --> A_1  D_1  S_1  
     e(  2 -  2) =    -11.62990  eV     1   --> A_1  D_1  S_1  
     e(  3 -  3) =    -11.28614  eV     1   --> B_2  D_4  S_4  
     e(  4 -  4) =    -10.98960  eV     1   --> B_1  D_3  S_3  
     e(  5 -  5) =     10.28756  eV     1   --> A_1  D_1  S_1  
     e(  6 -  6) =     15.92370  eV     1   --> A_1  D_1  S_1  
     e(  7 -  7) =     18.30565  eV     1   --> B_2  D_4  S_4  
     e(  8 -  8) =     18.93560  eV     1   --> A_1  D_1  S_1  
     e(  9 -  9) =     19.46719  eV     1   --> B_1  D_3  S_3  
     e( 10 - 10) =     24.31524  eV     1   --> A_2  D_2  S_2  
     e( 11 - 11) =     25.38921  eV     1   --> A_1  D_1  S_1  
     e( 12 - 12) =     26.02890  eV     1   --> B_1  D_3  S_3  
     e( 13 - 13) =     27.42963  eV     1   --> B_2  D_4  S_4  
     e( 14 - 14) =     32.52928  eV     1   --> B_2  D_4  S_4  
     e( 15 - 15) =     32.90304  eV     1   --> A_1  D_1  S_1  
     e( 16 - 16) =     36.13300  eV     1   --> A_1  D_1  S_1  
     e( 17 - 17) =     36.93279  eV     1   --> A_1  D_1  S_1  
     e( 18 - 18) =     37.09004  eV     1   --> B_1  D_3  S_3  
     e( 19 - 19) =     46.57675  eV     1   --> B_1  D_3  S_3  
     e( 20 - 20) =     46.82738  eV     1   --> A_1  D_1  S_1  

 **************************************************************************

 **************************************************************************

                    xk=(   0.00000,   0.36084,   0.00000  )

     Band symmetry, C_2v (mm2)  point group:

     e(  1 -  1) =    -37.01285  eV     1   --> A_1  D_1  S_1  
     e(  2 -  2) =    -11.67430  eV     1   --> A_1  D_1  S_1  
     e(  3 -  3) =    -11.27767  eV     1   --> B_2  D_4  S_4  
     e(  4 -  4) =    -11.00011  eV     1   --> B_1  D_3  S_3  
     e(  5 -  5) =     10.42510  eV     1   --> A_1  D_1  S_1  
     e(  6 -  6) =     15.76799  eV     1   --> A_1  D_1  S_1  
     e(  7 -  7) =     18.21158  eV     1   --> B_2  D_4  S_4  
     e(  8 -  8) =     18.88756  eV     1   --> A_1  D_1  S_1  
     e(  9 -  9) =     19.48460  eV     1   --> B_1  D_3  S_3  
     e( 10 - 10) =     24.27546  eV     1   --> A_2  D_2  S_2  
     e( 11 - 11) =     25.49662  eV     1   --> A_1  D_1  S_1  
     e( 12 - 12) =     26.06393  eV     1   --> B_1  D_3  S_3  
     e( 13 - 13) =     27.37479  eV     1   --> B_2  D_4  S_4  
     e( 14 - 14) =     32.71214  eV     1   --> B_2  D_4  S_4  
     e( 15 - 15) =     32.92295  eV     1   --> A_1  D_1  S_1  
     e( 16 - 16) =     36.06794  eV     1   --> A_1  D_1  S_1  
     e( 17 - 17) =     37.24754  eV     1   --> A_1  D_1  S_1  
     e( 18 - 18) =     37.48799  eV     1   --> B_1  D_3  S_3  
     e( 19 - 19) =     46.15014  eV     1   --> B_1  D_3  S_3  
     e( 20 - 20) =     46.63125  eV     1   --> A_1  D_1  S_1  

 **************************************************************************

 **************************************************************************

                    xk=(   0.00000,   0.37528,   0.00000  )

     Band symmetry, C_2v (mm2)  point group:

     e(  1 -  1) =    -37.00649  eV     1   --> A_1  D_1  S_1  
     e(  2 -  2) =    -11.71708  eV     1   --> A_1  D_1  S_1  
     e(  3 -  3) =    -11.26947  eV     1   --> B_2  D_4  S_4  
     e(  4 -  4) =    -11.01028  eV     1   --> B_1  D_3  S_3  
     e(  5 -  5) =     10.56397  eV     1   --> A_1  D_1  S_1  
     e(  6 -  6) =     15.61343  eV     1   --> A_1  D_1  S_1  
     e(  7 -  7) =     18.12281  eV     1   --> B_2  D_4  S_4  
     e(  8 -  8) =     18.83282  eV     1   --> A_1  D_1  S_1  
     e(  9 -  9) =     19.49849  eV     1   --> B_1  D_3  S_3  
     e( 10 - 10) =     24.23731  eV     1   --> A_2  D_2  S_2  
     e( 11 - 11) =     25.62512  eV     1   --> A_1  D_1  S_1  
     e( 12 - 12) =     26.10688  eV     1   --> B_1  D_3  S_3  
     e( 13 - 13) =     27.31129  eV     1   --> B_2  D_4  S_4  
     e( 14 - 14) =     32.90859  eV     1   --> B_2  D_4  S_4  
     e( 15 - 15) =     32.92770  eV     1   --> A_1  D_1  S_1  
     e( 16 - 16) =     35.95760  eV     1   --> A_1  D_1  S_1  
     e( 17 - 17) =     37.59580  eV     1   --> A_1  D_1  S_1  
     e( 18 - 18) =     37.88684  eV     1   --> B_1  D_3  S_3  
     e( 19 - 19) =     45.74015  eV     1   --> B_1  D_3  S_3  
     e( 20 - 20) =     46.43051  eV     1   --> A_1  D_1  S_1  

 **************************************************************************

 **************************************************************************

                    xk=(   0.00000,   0.38971,   0.00000  )

     Band symmetry, C_2v (mm2)  point group:

     e(  1 -  1) =    -37.00037  eV     1   --> A_1  D_1  S_1  
     e(  2 -  2) =    -11.75797  eV     1   --> A_1  D_1  S_1  
     e(  3 -  3) =    -11.26158  eV     1   --> B_2  D_4  S_4  
     e(  4 -  4) =    -11.02002  eV     1   --> B_1  D_3  S_3  
     e(  5 -  5) =     10.70445  eV     1   --> A_1  D_1  S_1  
     e(  6 -  6) =     15.46041  eV     1   --> A_1  D_1  S_1  
     e(  7 -  7) =     18.03972  eV     1   --> B_2  D_4  S_4  
     e(  8 -  8) =     18.77320  eV     1   --> A_1  D_1  S_1  
     e(  9 -  9) =     19.50999  eV     1   --> B_1  D_3  S_3  
     e( 10 - 10) =     24.20096  eV     1   --> A_2  D_2  S_2  
     e( 11 - 11) =     25.77301  eV     1   --> A_1  D_1  S_1  
     e( 12 - 12) =     26.15692  eV     1   --> B_1  D_3  S_3  
     e( 13 - 13) =     27.24289  eV     1   --> B_2  D_4  S_4  
     e( 14 - 14) =     32.91639  eV     1   --> A_1  D_1  S_1  
     e( 15 - 15) =     33.11620  eV     1   --> B_2  D_4  S_4  
     e( 16 - 16) =     35.83163  eV     1   --> A_1  D_1  S_1  
     e( 17 - 17) =     37.95948  eV     1   --> A_1  D_1  S_1  
     e( 18 - 18) =     38.28560  eV     1   --> B_1  D_3  S_3  
     e( 19 - 19) =     45.35083  eV     1   --> B_1  D_3  S_3  
     e( 20 - 20) =     46.23296  eV     1   --> A_1  D_1  S_1  

 **************************************************************************

 **************************************************************************

                    xk=(   0.00000,   0.40415,   0.00000  )

     Band symmetry, C_2v (mm2)  point group:

     e(  1 -  1) =    -36.99452  eV     1   --> A_1  D_1  S_1  
     e(  2 -  2) =    -11.79677  eV     1   --> A_1  D_1  S_1  
     e(  3 -  3) =    -11.25404  eV     1   --> B_2  D_4  S_4  
     e(  4 -  4) =    -11.02928  eV     1   --> B_1  D_3  S_3  
     e(  5 -  5) =     10.84565  eV     1   --> A_1  D_1  S_1  
     e(  6 -  6) =     15.30916  eV     1   --> A_1  D_1  S_1  
     e(  7 -  7) =     17.96233  eV     1   --> B_2  D_4  S_4  
     e(  8 -  8) =     18.71032  eV     1   --> A_1  D_1  S_1  
     e(  9 -  9) =     19.51915  eV     1   --> B_1  D_3  S_3  
     e( 10 - 10) =     24.16661  eV     1   --> A_2  D_2  S_2  
     e( 11 - 11) =     25.93757  eV     1   --> A_1  D_1  S_1  
     e( 12 - 12) =     26.21242  eV     1   --> B_1  D_3  S_3  
     e( 13 - 13) =     27.17190  eV     1   --> B_2  D_4  S_4  
     e( 14 - 14) =     32.88676  eV     1   --> A_1  D_1  S_1  
     e( 15 - 15) =     33.33002  eV     1   --> B_2  D_4  S_4  
     e( 16 - 16) =     35.69701  eV     1   --> A_1  D_1  S_1  
     e( 17 - 17) =     38.32655  eV     1   --> A_1  D_1  S_1  
     e( 18 - 18) =     38.68549  eV     1   --> B_1  D_3  S_3  
     e( 19 - 19) =     44.98233  eV     1   --> B_1  D_3  S_3  
     e( 20 - 20) =     46.03488  eV     1   --> A_1  D_1  S_1  

 **************************************************************************

 **************************************************************************

                    xk=(   0.00000,   0.41858,   0.00000  )

     Band symmetry, C_2v (mm2)  point group:

     e(  1 -  1) =    -36.98899  eV     1   --> A_1  D_1  S_1  
     e(  2 -  2) =    -11.83326  eV     1   --> A_1  D_1  S_1  
     e(  3 -  3) =    -11.24692  eV     1   --> B_2  D_4  S_4  
     e(  4 -  4) =    -11.03802  eV     1   --> B_1  D_3  S_3  
     e(  5 -  5) =     10.98686  eV     1   --> A_1  D_1  S_1  
     e(  6 -  6) =     15.15973  eV     1   --> A_1  D_1  S_1  
     e(  7 -  7) =     17.89075  eV     1   --> B_2  D_4  S_4  
     e(  8 -  8) =     18.64589  eV     1   --> A_1  D_1  S_1  
     e(  9 -  9) =     19.52576  eV     1   --> B_1  D_3  S_3  
     e( 10 - 10) =     24.13442  eV     1   --> A_2  D_2  S_2  
     e( 11 - 11) =     26.11611  eV     1   --> A_1  D_1  S_1  
     e( 12 - 12) =     26.27187  eV     1   --> B_1  D_3  S_3  
     e( 13 - 13) =     27.10061  eV     1   --> B_2  D_4  S_4  
     e( 14 - 14) =     32.83794  eV     1   --> A_1  D_1  S_1  
     e( 15 - 15) =     33.54621  eV     1   --> B_2  D_4  S_4  
     e( 16 - 16) =     35.56253  eV     1   --> A_1  D_1  S_1  
     e( 17 - 17) =     38.69265  eV     1   --> A_1  D_1  S_1  
     e( 18 - 18) =     39.07964  eV     1   --> B_1  D_3  S_3  
     e( 19 - 19) =     44.63529  eV     1   --> B_1  D_3  S_3  
     e( 20 - 20) =     45.83644  eV     1   --> A_1  D_1  S_1  

 **************************************************************************

 **************************************************************************

                    xk=(   0.00000,   0.43301,   0.00000  )

     Band symmetry, C_2v (mm2)  point group:

     e(  1 -  1) =    -36.98382  eV     1   --> A_1  D_1  S_1  
     e(  2 -  2) =    -11.86725  eV     1   --> A_1  D_1  S_1  
     e(  3 -  3) =    -11.24024  eV     1   --> B_2  D_4  S_4  
     e(  4 -  4) =    -11.04618  eV     1   --> B_1  D_3  S_3  
     e(  5 -  5) =     11.12748  eV     1   --> A_1  D_1  S_1  
     e(  6 -  6) =     15.01322  eV     1   --> A_1  D_1  S_1  
     e(  7 -  7) =     17.82513  eV     1   --> B_2  D_4  S_4  
     e(  8 -  8) =     18.58155  eV     1   --> A_1  D_1  S_1  
     e(  9 -  9) =     19.53043  eV     1   --> B_1  D_3  S_3  
     e( 10 - 10) =     24.10453  eV     1   --> A_2  D_2  S_2  
     e( 11 - 11) =     26.30605  eV     1   --> A_1  D_1  S_1  
     e( 12 - 12) =     26.33371  eV     1   --> B_1  D_3  S_3  
     e( 13 - 13) =     27.03224  eV     1   --> B_2  D_4  S_4  
     e( 14 - 14) =     32.76916  eV     1   --> A_1  D_1  S_1  
     e( 15 - 15) =     33.76123  eV     1   --> B_2  D_4  S_4  
     e( 16 - 16) =     35.43493  eV     1   --> A_1  D_1  S_1  
     e( 17 - 17) =     39.05491  eV     1   --> A_1  D_1  S_1  
     e( 18 - 18) =     39.46867  eV     1   --> B_1  D_3  S_3  
     e( 19 - 19) =     44.31133  eV     1   --> B_1  D_3  S_3  
     e( 20 - 20) =     45.63931  eV     1   --> A_1  D_1  S_1  

 **************************************************************************

 **************************************************************************

                    xk=(   0.00000,   0.44745,   0.00000  )

     Band symmetry, C_2v (mm2)  point group:

     e(  1 -  1) =    -36.97903  eV     1   --> A_1  D_1  S_1  
     e(  2 -  2) =    -11.89856  eV     1   --> A_1  D_1  S_1  
     e(  3 -  3) =    -11.23407  eV     1   --> B_2  D_4  S_4  
     e(  4 -  4) =    -11.05371  eV     1   --> B_1  D_3  S_3  
     e(  5 -  5) =     11.26634  eV     1   --> A_1  D_1  S_1  
     e(  6 -  6) =     14.86949  eV     1   --> A_1  D_1  S_1  
     e(  7 -  7) =     17.76545  eV     1   --> B_2  D_4  S_4  
     e(  8 -  8) =     18.51881  eV     1   --> A_1  D_1  S_1  
     e(  9 -  9) =     19.53340  eV     1   --> B_1  D_3  S_3  
     e( 10 - 10) =     24.07708  eV     1   --> A_2  D_2  S_2  
     e( 11 - 11) =     26.39630  eV     1   --> B_1  D_3  S_3  
     e( 12 - 12) =     26.50366  eV     1   --> A_1  D_1  S_1  
     e( 13 - 13) =     26.96556  eV     1   --> B_2  D_4  S_4  
     e( 14 - 14) =     32.68039  eV     1   --> A_1  D_1  S_1  
     e( 15 - 15) =     33.97113  eV     1   --> B_2  D_4  S_4  
     e( 16 - 16) =     35.31590  eV     1   --> A_1  D_1  S_1  
     e( 17 - 17) =     39.41056  eV     1   --> A_1  D_1  S_1  
     e( 18 - 18) =     39.84998  eV     1   --> B_1  D_3  S_3  
     e( 19 - 19) =     44.01156  eV     1   --> B_1  D_3  S_3  
     e( 20 - 20) =     45.44061  eV     1   --> A_1  D_1  S_1  

 **************************************************************************

 **************************************************************************

                    xk=(   0.00000,   0.46188,   0.00000  )

     Band symmetry, C_2v (mm2)  point group:

     e(  1 -  1) =    -36.97467  eV     1   --> A_1  D_1  S_1  
     e(  2 -  2) =    -11.92701  eV     1   --> A_1  D_1  S_1  
     e(  3 -  3) =    -11.22843  eV     1   --> B_2  D_4  S_4  
     e(  4 -  4) =    -11.06056  eV     1   --> B_1  D_3  S_3  
     e(  5 -  5) =     11.40153  eV     1   --> A_1  D_1  S_1  
     e(  6 -  6) =     14.72977  eV     1   --> A_1  D_1  S_1  
     e(  7 -  7) =     17.71185  eV     1   --> B_2  D_4  S_4  
     e(  8 -  8) =     18.45903  eV     1   --> A_1  D_1  S_1  
     e(  9 -  9) =     19.53480  eV     1   --> B_1  D_3  S_3  
     e( 10 - 10) =     24.05220  eV     1   --> A_2  D_2  S_2  
     e( 11 - 11) =     26.45776  eV     1   --> B_1  D_3  S_3  
     e( 12 - 12) =     26.70541  eV     1   --> A_1  D_1  S_1  
     e( 13 - 13) =     26.90321  eV     1   --> B_2  D_4  S_4  
     e( 14 - 14) =     32.57301  eV     1   --> A_1  D_1  S_1  
     e( 15 - 15) =     34.17249  eV     1   --> B_2  D_4  S_4  
     e( 16 - 16) =     35.20972  eV     1   --> A_1  D_1  S_1  
     e( 17 - 17) =     39.75685  eV     1   --> A_1  D_1  S_1  
     e( 18 - 18) =     40.21763  eV     1   --> B_1  D_3  S_3  
     e( 19 - 19) =     43.73700  eV     1   --> B_1  D_3  S_3  
     e( 20 - 20) =     45.24067  eV     1   --> A_1  D_1  S_1  

 **************************************************************************

 **************************************************************************

                    xk=(   0.00000,   0.47631,   0.00000  )

     Band symmetry, C_2v (mm2)  point group:

     e(  1 -  1) =    -36.97075  eV     1   --> A_1  D_1  S_1  
     e(  2 -  2) =    -11.95247  eV     1   --> A_1  D_1  S_1  
     e(  3 -  3) =    -11.22337  eV     1   --> B_2  D_4  S_4  
     e(  4 -  4) =    -11.06671  eV     1   --> B_1  D_3  S_3  
     e(  5 -  5) =     11.53334  eV     1   --> A_1  D_1  S_1  
     e(  6 -  6) =     14.59561  eV     1   --> A_1  D_1  S_1  
     e(  7 -  7) =     17.66441  eV     1   --> B_2  D_4  S_4  
     e(  8 -  8) =     18.40349  eV     1   --> A_1  D_1  S_1  
     e(  9 -  9) =     19.53541  eV     1   --> B_1  D_3  S_3  
     e( 10 - 10) =     24.02999  eV     1   --> A_2  D_2  S_2  
     e( 11 - 11) =     26.51695  eV     1   --> B_1  D_3  S_3  
     e( 12 - 12) =     26.84622  eV     1   --> B_2  D_4  S_4  
     e( 13 - 13) =     26.90757  eV     1   --> A_1  D_1  S_1  
     e( 14 - 14) =     32.45039  eV     1   --> A_1  D_1  S_1  
     e( 15 - 15) =     34.36185  eV     1   --> B_2  D_4  S_4  
     e( 16 - 16) =     35.11876  eV     1   --> A_1  D_1  S_1  
     e( 17 - 17) =     40.09194  eV     1   --> A_1  D_1  S_1  
     e( 18 - 18) =     40.57329  eV     1   --> B_1  D_3  S_3  
     e( 19 - 19) =     43.48898  eV     1   --> B_1  D_3  S_3  
     e( 20 - 20) =     45.04471  eV     1   --> A_1  D_1  S_1  

 **************************************************************************

 **************************************************************************

                    xk=(   0.00000,   0.49075,   0.00000  )

     Band symmetry, C_2v (mm2)  point group:

     e(  1 -  1) =    -36.96729  eV     1   --> A_1  D_1  S_1  
     e(  2 -  2) =    -11.97481  eV     1   --> A_1  D_1  S_1  
     e(  3 -  3) =    -11.21891  eV     1   --> B_2  D_4  S_4  
     e(  4 -  4) =    -11.07211  eV     1   --> B_1  D_3  S_3  
     e(  5 -  5) =     11.65888  eV     1   --> A_1  D_1  S_1  
     e(  6 -  6) =     14.46830  eV     1   --> A_1  D_1  S_1  
     e(  7 -  7) =     17.62318  eV     1   --> B_2  D_4  S_4  
     e(  8 -  8) =     18.35324  eV     1   --> A_1  D_1  S_1  
     e(  9 -  9) =     19.53529  eV     1   --> B_1  D_3  S_3  
     e( 10 - 10) =     24.01055  eV     1   --> A_2  D_2  S_2  
     e( 11 - 11) =     26.57203  eV     1   --> B_1  D_3  S_3  
     e( 12 - 12) =     26.79540  eV     1   --> B_2  D_4  S_4  
     e( 13 - 13) =     27.10501  eV     1   --> A_1  D_1  S_1  
     e( 14 - 14) =     32.31740  eV     1   --> A_1  D_1  S_1  
     e( 15 - 15) =     34.53561  eV     1   --> B_2  D_4  S_4  
     e( 16 - 16) =     35.04245  eV     1   --> A_1  D_1  S_1  
     e( 17 - 17) =     40.41082  eV     1   --> A_1  D_1  S_1  
     e( 18 - 18) =     40.90972  eV     1   --> B_1  D_3  S_3  
     e( 19 - 19) =     43.26800  eV     1   --> B_1  D_3  S_3  
     e( 20 - 20) =     44.84853  eV     1   --> A_1  D_1  S_1  

 **************************************************************************

 **************************************************************************

                    xk=(   0.00000,   0.50518,   0.00000  )

     Band symmetry, C_2v (mm2)  point group:

     e(  1 -  1) =    -36.96433  eV     1   --> A_1  D_1  S_1  
     e(  2 -  2) =    -11.99390  eV     1   --> A_1  D_1  S_1  
     e(  3 -  3) =    -11.21509  eV     1   --> B_2  D_4  S_4  
     e(  4 -  4) =    -11.07673  eV     1   --> B_1  D_3  S_3  
     e(  5 -  5) =     11.77574  eV     1   --> A_1  D_1  S_1  
     e(  6 -  6) =     14.35031  eV     1   --> A_1  D_1  S_1  
     e(  7 -  7) =     17.58820  eV     1   --> B_2  D_4  S_4  
     e(  8 -  8) =     18.30921  eV     1   --> A_1  D_1  S_1  
     e(  9 -  9) =     19.53472  eV     1   --> B_1  D_3  S_3  
     e( 10 - 10) =     23.99396  eV     1   --> A_2  D_2  S_2  
     e( 11 - 11) =     26.62151  eV     1   --> B_1  D_3  S_3  
     e( 12 - 12) =     26.75142  eV     1   --> B_2  D_4  S_4  
     e( 13 - 13) =     27.29208  eV     1   --> A_1  D_1  S_1  
     e( 14 - 14) =     32.18082  eV     1   --> A_1  D_1  S_1  
     e( 15 - 15) =     34.69025  eV     1   --> B_2  D_4  S_4  
     e( 16 - 16) =     34.98087  eV     1   --> A_1  D_1  S_1  
     e( 17 - 17) =     40.70935  eV     1   --> A_1  D_1  S_1  
     e( 18 - 18) =     41.22142  eV     1   --> B_1  D_3  S_3  
     e( 19 - 19) =     43.07433  eV     1   --> B_1  D_3  S_3  
     e( 20 - 20) =     44.65716  eV     1   --> A_1  D_1  S_1  

 **************************************************************************

 **************************************************************************

                    xk=(   0.00000,   0.51962,   0.00000  )

     Band symmetry, C_2v (mm2)  point group:

     e(  1 -  1) =    -36.96188  eV     1   --> A_1  D_1  S_1  
     e(  2 -  2) =    -12.00965  eV     1   --> A_1  D_1  S_1  
     e(  3 -  3) =    -11.21193  eV     1   --> B_2  D_4  S_4  
     e(  4 -  4) =    -11.08055  eV     1   --> B_1  D_3  S_3  
     e(  5 -  5) =     11.88075  eV     1   --> A_1  D_1  S_1  
     e(  6 -  6) =     14.24517  eV     1   --> A_1  D_1  S_1  
     e(  7 -  7) =     17.55981  eV     1   --> B_2  D_4  S_4  
     e(  8 -  8) =     18.27218  eV     1   --> A_1  D_1  S_1  
     e(  9 -  9) =     19.53406  eV     1   --> B_1  D_3  S_3  
     e( 10 - 10) =     23.98030  eV     1   --> A_2  D_2  S_2  
     e( 11 - 11) =     26.66404  eV     1   --> B_1  D_3  S_3  
     e( 12 - 12) =     26.71507  eV     1   --> B_2  D_4  S_4  
     e( 13 - 13) =     27.46228  eV     1   --> A_1  D_1  S_1  
     e( 14 - 14) =     32.04898  eV     1   --> A_1  D_1  S_1  
     e( 15 - 15) =     34.82390  eV     1   --> B_2  D_4  S_4  
     e( 16 - 16) =     34.93325  eV     1   --> A_1  D_1  S_1  
     e( 17 - 17) =     40.98180  eV     1   --> A_1  D_1  S_1  
     e( 18 - 18) =     41.50284  eV     1   --> B_1  D_3  S_3  
     e( 19 - 19) =     42.90771  eV     1   --> B_1  D_3  S_3  
     e( 20 - 20) =     44.47552  eV     1   --> A_1  D_1  S_1  

 **************************************************************************

 **************************************************************************

                    xk=(   0.00000,   0.53405,   0.00000  )

     Band symmetry, C_2v (mm2)  point group:

     e(  1 -  1) =    -36.95996  eV     1   --> A_1  D_1  S_1  
     e(  2 -  2) =    -12.02199  eV     1   --> A_1  D_1  S_1  
     e(  3 -  3) =    -11.20944  eV     1   --> B_2  D_4  S_4  
     e(  4 -  4) =    -11.08354  eV     1   --> B_1  D_3  S_3  
     e(  5 -  5) =     11.96989  eV     1   --> A_1  D_1  S_1  
     e(  6 -  6) =     14.15564  eV     1   --> A_1  D_1  S_1  
     e(  7 -  7) =     17.53747  eV     1   --> B_2  D_4  S_4  
     e(  8 -  8) =     18.24273  eV     1   --> A_1  D_1  S_1  
     e(  9 -  9) =     19.53323  eV     1   --> B_1  D_3  S_3  
     e( 10 - 10) =     23.96961  eV     1   --> A_2  D_2  S_2  
     e( 11 - 11) =     26.68619  eV     1   --> B_2  D_4  S_4  
     e( 12 - 12) =     26.69843  eV     1   --> B_1  D_3  S_3  
     e( 13 - 13) =     27.60740  eV     1   --> A_1  D_1  S_1  
     e( 14 - 14) =     31.93130  eV     1   --> A_1  D_1  S_1  
     e( 15 - 15) =     34.89770  eV     1   --> A_1  D_1  S_1  
     e( 16 - 16) =     34.93042  eV     1   --> B_2  D_4  S_4  
     e( 17 - 17) =     41.21734  eV     1   --> A_1  D_1  S_1  
     e( 18 - 18) =     41.74573  eV     1   --> B_1  D_3  S_3  
     e( 19 - 19) =     42.76679  eV     1   --> B_1  D_3  S_3  
     e( 20 - 20) =     44.31144  eV     1   --> A_1  D_1  S_1  

 **************************************************************************

 **************************************************************************

                    xk=(   0.00000,   0.54848,   0.00000  )

     Band symmetry, C_2v (mm2)  point group:

     e(  1 -  1) =    -36.95858  eV     1   --> A_1  D_1  S_1  
     e(  2 -  2) =    -12.03084  eV     1   --> A_1  D_1  S_1  
     e(  3 -  3) =    -11.20766  eV     1   --> B_2  D_4  S_4  
     e(  4 -  4) =    -11.08569  eV     1   --> B_1  D_3  S_3  
     e(  5 -  5) =     12.03860  eV     1   --> A_1  D_1  S_1  
     e(  6 -  6) =     14.08675  eV     1   --> A_1  D_1  S_1  
     e(  7 -  7) =     17.52150  eV     1   --> B_2  D_4  S_4  
     e(  8 -  8) =     18.22137  eV     1   --> A_1  D_1  S_1  
     e(  9 -  9) =     19.53252  eV     1   --> B_1  D_3  S_3  
     e( 10 - 10) =     23.96194  eV     1   --> A_2  D_2  S_2  
     e( 11 - 11) =     26.66535  eV     1   --> B_2  D_4  S_4  
     e( 12 - 12) =     26.72373  eV     1   --> B_1  D_3  S_3  
     e( 13 - 13) =     27.71943  eV     1   --> A_1  D_1  S_1  
     e( 14 - 14) =     31.83764  eV     1   --> A_1  D_1  S_1  
     e( 15 - 15) =     34.87330  eV     1   --> A_1  D_1  S_1  
     e( 16 - 16) =     35.00863  eV     1   --> B_2  D_4  S_4  
     e( 17 - 17) =     41.40396  eV     1   --> A_1  D_1  S_1  
     e( 18 - 18) =     41.94341  eV     1   --> B_1  D_3  S_3  
     e( 19 - 19) =     42.65051  eV     1   --> B_1  D_3  S_3  
     e( 20 - 20) =     44.17661  eV     1   --> A_1  D_1  S_1  

 **************************************************************************

 **************************************************************************

                    xk=(   0.00000,   0.56292,   0.00000  )

     Band symmetry, C_2v (mm2)  point group:

     e(  1 -  1) =    -36.95774  eV     1   --> A_1  D_1  S_1  
     e(  2 -  2) =    -12.03617  eV     1   --> A_1  D_1  S_1  
     e(  3 -  3) =    -11.20659  eV     1   --> B_2  D_4  S_4  
     e(  4 -  4) =    -11.08698  eV     1   --> B_1  D_3  S_3  
     e(  5 -  5) =     12.08224  eV     1   --> A_1  D_1  S_1  
     e(  6 -  6) =     14.04304  eV     1   --> A_1  D_1  S_1  
     e(  7 -  7) =     17.51191  eV     1   --> B_2  D_4  S_4  
     e(  8 -  8) =     18.20842  eV     1   --> A_1  D_1  S_1  
     e(  9 -  9) =     19.53205  eV     1   --> B_1  D_3  S_3  
     e( 10 - 10) =     23.95733  eV     1   --> A_2  D_2  S_2  
     e( 11 - 11) =     26.65277  eV     1   --> B_2  D_4  S_4  
     e( 12 - 12) =     26.73920  eV     1   --> B_1  D_3  S_3  
     e( 13 - 13) =     27.79058  eV     1   --> A_1  D_1  S_1  
     e( 14 - 14) =     31.77699  eV     1   --> A_1  D_1  S_1  
     e( 15 - 15) =     34.85911  eV     1   --> A_1  D_1  S_1  
     e( 16 - 16) =     35.05645  eV     1   --> B_2  D_4  S_4  
     e( 17 - 17) =     41.52601  eV     1   --> A_1  D_1  S_1  
     e( 18 - 18) =     42.08438  eV     1   --> B_1  D_3  S_3  
     e( 19 - 19) =     42.56233  eV     1   --> B_1  D_3  S_3  
     e( 20 - 20) =     44.08590  eV     1   --> A_1  D_1  S_1  

 **************************************************************************

 **************************************************************************

                    xk=(   0.00000,   0.57735,   0.00000  )

     point group D_2h (mmm) 
     there are  8 classes
     the character table:

       E     C2    C2'   C2''  i     s_v   s_v'  s_v''
A_g    1.00  1.00  1.00  1.00  1.00  1.00  1.00  1.00
B_1g   1.00  1.00 -1.00 -1.00  1.00  1.00 -1.00 -1.00
B_2g   1.00 -1.00  1.00 -1.00  1.00 -1.00  1.00 -1.00
B_3g   1.00 -1.00 -1.00  1.00  1.00 -1.00 -1.00  1.00
A_u    1.00  1.00  1.00  1.00 -1.00 -1.00 -1.00 -1.00
B_1u   1.00  1.00 -1.00 -1.00 -1.00 -1.00  1.00  1.00
B_2u   1.00 -1.00  1.00 -1.00 -1.00  1.00 -1.00  1.00
B_3u   1.00 -1.00 -1.00  1.00 -1.00  1.00  1.00 -1.00

     the symmetry operations in each class and the name of the first element:

     E        1
                                                                 
     C2       2
                                                                 
     C2'      4
                                                                 
     C2''     3
                                                                 
     i        5
                                                                 
     s_v      6
                                                                 
     s_v'     8
                                                                 
     s_v''    7
                                                                 

     Band symmetry, D_2h (mmm)  point group:

     e(  1 -  1) =    -36.95747  eV     1   --> A_g            
     e(  2 -  2) =    -12.03796  eV     1   --> B_3u           
     e(  3 -  3) =    -11.20623  eV     1   --> B_1u           
     e(  4 -  4) =    -11.08741  eV     1   --> B_2u           
     e(  5 -  5) =     12.09702  eV     1   --> A_g            
     e(  6 -  6) =     14.02759  eV     1   --> B_3u           
     e(  7 -  7) =     17.50862  eV     1   --> B_2g           
     e(  8 -  8) =     18.20405  eV     1   --> A_g            
     e(  9 -  9) =     19.53186  eV     1   --> B_2u           
     e( 10 - 10) =     23.95579  eV     1   --> B_3g           
     e( 11 - 11) =     26.64853  eV     1   --> B_1u           
     e( 12 - 12) =     26.74440  eV     1   --> B_1g           
     e( 13 - 13) =     27.81468  eV     1   --> A_g            
     e( 14 - 14) =     31.75531  eV     1   --> B_3u           
     e( 15 - 15) =     34.85433  eV     1   --> A_g            
     e( 16 - 16) =     35.07220  eV     1   --> B_2g           
     e( 17 - 17) =     41.56653  eV     1   --> A_g            
     e( 18 - 18) =     42.14026  eV     1   --> B_1g           
     e( 19 - 19) =     42.52436  eV     1   --> B_2u           
     e( 20 - 20) =     44.05307  eV     1   --> B_3u           

 **************************************************************************

 **************************************************************************

                    xk=(   0.01667,   0.57735,   0.00000  )

     point group C_2v (mm2) 
     there are  4 classes
     the character table:

       E     C2    s_v   s_v' 
A_1    1.00  1.00  1.00  1.00
A_2    1.00  1.00 -1.00 -1.00
B_1    1.00 -1.00  1.00 -1.00
B_2    1.00 -1.00 -1.00  1.00

     the symmetry operations in each class and the name of the first element:

     E        1
                                                                 
     C2       2
                                                                 
     s_v      4
                                                                 
     s_v'     3
                                                                 

     Band symmetry, C_2v (mm2)  point group:

     e(  1 -  1) =    -36.95734  eV     1   --> A_1  D_1  S_1  
     e(  2 -  2) =    -12.03692  eV     1   --> B_2  D_4  S_4  
     e(  3 -  3) =    -11.20607  eV     1   --> B_1  D_3  S_3  
     e(  4 -  4) =    -11.08972  eV     1   --> A_1  D_1  S_1  
     e(  5 -  5) =     12.10349  eV     1   --> A_1  D_1  S_1  
     e(  6 -  6) =     14.02859  eV     1   --> B_2  D_4  S_4  
     e(  7 -  7) =     17.51305  eV     1   --> A_2  D_2  S_2  
     e(  8 -  8) =     18.17229  eV     1   --> A_1  D_1  S_1  
     e(  9 -  9) =     19.56492  eV     1   --> A_1  D_1  S_1  
     e( 10 - 10) =     23.90039  eV     1   --> B_1  D_3  S_3  
     e( 11 - 11) =     26.71219  eV     1   --> B_1  D_3  S_3  
     e( 12 - 12) =     26.72354  eV     1   --> B_2  D_4  S_4  
     e( 13 - 13) =     27.80468  eV     1   --> A_1  D_1  S_1  
     e( 14 - 14) =     31.78449  eV     1   --> B_2  D_4  S_4  
     e( 15 - 15) =     34.87045  eV     1   --> A_1  D_1  S_1  
     e( 16 - 16) =     35.06645  eV     1   --> A_2  D_2  S_2  
     e( 17 - 17) =     41.52360  eV     1   --> A_1  D_1  S_1  
     e( 18 - 18) =     42.13251  eV     1   --> B_2  D_4  S_4  
     e( 19 - 19) =     42.56268  eV     1   --> A_1  D_1  S_1  
     e( 20 - 20) =     44.06130  eV     1   --> B_2  D_4  S_4  

 **************************************************************************

 **************************************************************************

                    xk=(   0.03333,   0.57735,   0.00000  )

     Band symmetry, C_2v (mm2)  point group:

     e(  1 -  1) =    -36.95698  eV     1   --> A_1  D_1  S_1  
     e(  2 -  2) =    -12.03381  eV     1   --> B_2  D_4  S_4  
     e(  3 -  3) =    -11.20561  eV     1   --> B_1  D_3  S_3  
     e(  4 -  4) =    -11.09660  eV     1   --> A_1  D_1  S_1  
     e(  5 -  5) =     12.12263  eV     1   --> A_1  D_1  S_1  
     e(  6 -  6) =     14.03159  eV     1   --> B_2  D_4  S_4  
     e(  7 -  7) =     17.52635  eV     1   --> A_2  D_2  S_2  
     e(  8 -  8) =     18.08419  eV     1   --> A_1  D_1  S_1  
     e(  9 -  9) =     19.65446  eV     1   --> A_1  D_1  S_1  
     e( 10 - 10) =     23.74790  eV     1   --> B_1  D_3  S_3  
     e( 11 - 11) =     26.66251  eV     1   --> B_2  D_4  S_4  
     e( 12 - 12) =     26.88909  eV     1   --> B_1  D_3  S_3  
     e( 13 - 13) =     27.77476  eV     1   --> A_1  D_1  S_1  
     e( 14 - 14) =     31.87045  eV     1   --> B_2  D_4  S_4  
     e( 15 - 15) =     34.91764  eV     1   --> A_1  D_1  S_1  
     e( 16 - 16) =     35.04923  eV     1   --> A_2  D_2  S_2  
     e( 17 - 17) =     41.41169  eV     1   --> A_1  D_1  S_1  
     e( 18 - 18) =     42.10965  eV     1   --> B_2  D_4  S_4  
     e( 19 - 19) =     42.65955  eV     1   --> A_1  D_1  S_1  
     e( 20 - 20) =     44.08557  eV     1   --> B_2  D_4  S_4  

 **************************************************************************

 **************************************************************************

                    xk=(   0.05000,   0.57735,   0.00000  )

     Band symmetry, C_2v (mm2)  point group:

     e(  1 -  1) =    -36.95638  eV     1   --> A_1  D_1  S_1  
     e(  2 -  2) =    -12.02864  eV     1   --> B_2  D_4  S_4  
     e(  3 -  3) =    -11.20484  eV     1   --> B_1  D_3  S_3  
     e(  4 -  4) =    -11.10796  eV     1   --> A_1  D_1  S_1  
     e(  5 -  5) =     12.15435  eV     1   --> A_1  D_1  S_1  
     e(  6 -  6) =     14.03635  eV     1   --> B_2  D_4  S_4  
     e(  7 -  7) =     17.54851  eV     1   --> A_2  D_2  S_2  
     e(  8 -  8) =     17.95510  eV     1   --> A_1  D_1  S_1  
     e(  9 -  9) =     19.78607  eV     1   --> A_1  D_1  S_1  
     e( 10 - 10) =     23.52748  eV     1   --> B_1  D_3  S_3  
     e( 11 - 11) =     26.56550  eV     1   --> B_2  D_4  S_4  
     e( 12 - 12) =     27.15001  eV     1   --> B_1  D_3  S_3  
     e( 13 - 13) =     27.72515  eV     1   --> A_1  D_1  S_1  
     e( 14 - 14) =     32.00872  eV     1   --> B_2  D_4  S_4  
     e( 15 - 15) =     34.99573  eV     1   --> A_1  D_1  S_1  
     e( 16 - 16) =     35.02067  eV     1   --> A_2  D_2  S_2  
     e( 17 - 17) =     41.25945  eV     1   --> A_1  D_1  S_1  
     e( 18 - 18) =     42.06978  eV     1   --> B_2  D_4  S_4  
     e( 19 - 19) =     42.78485  eV     1   --> A_1  D_1  S_1  
     e( 20 - 20) =     44.12451  eV     1   --> B_2  D_4  S_4  

 **************************************************************************

 **************************************************************************

                    xk=(   0.06667,   0.57735,   0.00000  )

     Band symmetry, C_2v (mm2)  point group:

     e(  1 -  1) =    -36.95556  eV     1   --> A_1  D_1  S_1  
     e(  2 -  2) =    -12.02142  eV     1   --> B_2  D_4  S_4  
     e(  3 -  3) =    -11.20380  eV     1   --> B_1  D_3  S_3  
     e(  4 -  4) =    -11.12364  eV     1   --> A_1  D_1  S_1  
     e(  5 -  5) =     12.19871  eV     1   --> A_1  D_1  S_1  
     e(  6 -  6) =     14.04352  eV     1   --> B_2  D_4  S_4  
     e(  7 -  7) =     17.57918  eV     1   --> A_2  D_2  S_2  
     e(  8 -  8) =     17.79864  eV     1   --> A_1  D_1  S_1  
     e(  9 -  9) =     19.94699  eV     1   --> A_1  D_1  S_1  
     e( 10 - 10) =     23.26596  eV     1   --> B_1  D_3  S_3  
     e( 11 - 11) =     26.43859  eV     1   --> B_2  D_4  S_4  
     e( 12 - 12) =     27.46743  eV     1   --> B_1  D_3  S_3  
     e( 13 - 13) =     27.65671  eV     1   --> A_1  D_1  S_1  
     e( 14 - 14) =     32.19400  eV     1   --> B_2  D_4  S_4  
     e( 15 - 15) =     34.97921  eV     1   --> A_2  D_2  S_2  
     e( 16 - 16) =     35.10461  eV     1   --> A_1  D_1  S_1  
     e( 17 - 17) =     41.08785  eV     1   --> A_1  D_1  S_1  
     e( 18 - 18) =     42.02034  eV     1   --> B_2  D_4  S_4  
     e( 19 - 19) =     42.91812  eV     1   --> A_1  D_1  S_1  
     e( 20 - 20) =     44.17658  eV     1   --> B_2  D_4  S_4  

 **************************************************************************

 **************************************************************************

                    xk=(   0.08333,   0.57735,   0.00000  )

     Band symmetry, C_2v (mm2)  point group:

     e(  1 -  1) =    -36.95453  eV     1   --> A_1  D_1  S_1  
     e(  2 -  2) =    -12.01219  eV     1   --> B_2  D_4  S_4  
     e(  3 -  3) =    -11.20248  eV     1   --> B_1  D_3  S_3  
     e(  4 -  4) =    -11.14343  eV     1   --> A_1  D_1  S_1  
     e(  5 -  5) =     12.25505  eV     1   --> A_1  D_1  S_1  
     e(  6 -  6) =     14.05252  eV     1   --> B_2  D_4  S_4  
     e(  7 -  7) =     17.61899  eV     1   --> A_2  D_2  S_2  
     e(  8 -  8) =     17.62384  eV     1   --> A_1  D_1  S_1  
     e(  9 -  9) =     20.12844  eV     1   --> A_1  D_1  S_1  
     e( 10 - 10) =     22.98214  eV     1   --> B_1  D_3  S_3  
     e( 11 - 11) =     26.28823  eV     1   --> B_2  D_4  S_4  
     e( 12 - 12) =     27.56936  eV     1   --> A_1  D_1  S_1  
     e( 13 - 13) =     27.82286  eV     1   --> B_1  D_3  S_3  
     e( 14 - 14) =     32.41840  eV     1   --> B_2  D_4  S_4  
     e( 15 - 15) =     34.92862  eV     1   --> A_2  D_2  S_2  
     e( 16 - 16) =     35.24331  eV     1   --> A_1  D_1  S_1  
     e( 17 - 17) =     40.90456  eV     1   --> A_1  D_1  S_1  
     e( 18 - 18) =     41.96039  eV     1   --> B_2  D_4  S_4  
     e( 19 - 19) =     43.04349  eV     1   --> A_1  D_1  S_1  
     e( 20 - 20) =     44.24008  eV     1   --> B_2  D_4  S_4  

 **************************************************************************

 **************************************************************************

                    xk=(   0.10000,   0.57735,   0.00000  )

     Band symmetry, C_2v (mm2)  point group:

     e(  1 -  1) =    -36.95330  eV     1   --> A_1  D_1  S_1  
     e(  2 -  2) =    -12.00098  eV     1   --> B_2  D_4  S_4  
     e(  3 -  3) =    -11.20093  eV     1   --> B_1  D_3  S_3  
     e(  4 -  4) =    -11.16707  eV     1   --> A_1  D_1  S_1  
     e(  5 -  5) =     12.32340  eV     1   --> A_1  D_1  S_1  
     e(  6 -  6) =     14.06358  eV     1   --> B_2  D_4  S_4  
     e(  7 -  7) =     17.43628  eV     1   --> A_1  D_1  S_1  
     e(  8 -  8) =     17.66728  eV     1   --> A_2  D_2  S_2  
     e(  9 -  9) =     20.32647  eV     1   --> A_1  D_1  S_1  
     e( 10 - 10) =     22.68766  eV     1   --> B_1  D_3  S_3  
     e( 11 - 11) =     26.12068  eV     1   --> B_2  D_4  S_4  
     e( 12 - 12) =     27.46429  eV     1   --> A_1  D_1  S_1  
     e( 13 - 13) =     28.20337  eV     1   --> B_1  D_3  S_3  
     e( 14 - 14) =     32.67590  eV     1   --> B_2  D_4  S_4  
     e( 15 - 15) =     34.86626  eV     1   --> A_2  D_2  S_2  
     e( 16 - 16) =     35.41057  eV     1   --> A_1  D_1  S_1  
     e( 17 - 17) =     40.71628  eV     1   --> A_1  D_1  S_1  
     e( 18 - 18) =     41.89509  eV     1   --> B_2  D_4  S_4  
     e( 19 - 19) =     43.15228  eV     1   --> A_1  D_1  S_1  
     e( 20 - 20) =     44.31428  eV     1   --> B_2  D_4  S_4  

 **************************************************************************

 **************************************************************************

                    xk=(   0.11667,   0.57735,   0.00000  )

     Band symmetry, C_2v (mm2)  point group:

     e(  1 -  1) =    -36.95192  eV     1   --> A_1  D_1  S_1  
     e(  2 -  2) =    -11.98784  eV     1   --> B_2  D_4  S_4  
     e(  3 -  3) =    -11.19917  eV     1   --> B_1  D_3  S_3  
     e(  4 -  4) =    -11.19424  eV     1   --> A_1  D_1  S_1  
     e(  5 -  5) =     12.40278  eV     1   --> A_1  D_1  S_1  
     e(  6 -  6) =     14.07665  eV     1   --> B_2  D_4  S_4  
     e(  7 -  7) =     17.23892  eV     1   --> A_1  D_1  S_1  
     e(  8 -  8) =     17.72462  eV     1   --> A_2  D_2  S_2  
     e(  9 -  9) =     20.53629  eV     1   --> A_1  D_1  S_1  
     e( 10 - 10) =     22.38963  eV     1   --> B_1  D_3  S_3  
[...]
     e(  9 -  9) =     20.67803  eV     1   --> B_1  D_3  S_3  
     e( 10 - 10) =     22.90821  eV     1   --> A_1  D_1  S_1  
     e( 11 - 11) =     24.86223  eV     1   --> A_1  D_1  S_1  
     e( 12 - 12) =     24.91768  eV     1   --> A_2  D_2  S_2  
     e( 13 - 13) =     25.36469  eV     1   --> B_2  D_4  S_4  
     e( 14 - 14) =     31.58842  eV     1   --> B_1  D_3  S_3  
     e( 15 - 15) =     35.80572  eV     1   --> B_2  D_4  S_4  
     e( 16 - 16) =     36.29808  eV     1   --> A_2  D_2  S_2  
     e( 17 - 17) =     38.46112  eV     1   --> A_2  D_2  S_2  
     e( 18 - 18) =     39.68888  eV     1   --> B_2  D_4  S_4  
     e( 19 - 19) =     42.21091  eV     1   --> A_1  D_1  S_1  
     e( 20 - 20) =     45.34480  eV     1   --> A_1  D_1  S_1  

 **************************************************************************

 **************************************************************************

                    xk=(   0.08333,   0.14434,   0.46733  )

     Band symmetry, C_2v (mm2)  point group:

     e(  1 -  1) =    -37.05476  eV     1   --> A_1  D_1  S_1  
     e(  2 -  2) =    -11.99020  eV     1   --> B_2  D_4  S_4  
     e(  3 -  3) =    -10.98467  eV     1   --> A_1  D_1  S_1  
     e(  4 -  4) =    -10.80392  eV     1   --> B_1  D_3  S_3  
     e(  5 -  5) =     11.59581  eV     1   --> B_2  D_4  S_4  
     e(  6 -  6) =     14.96915  eV     1   --> A_1  D_1  S_1  
     e(  7 -  7) =     18.99532  eV     1   --> A_2  D_2  S_2  
     e(  8 -  8) =     19.35810  eV     1   --> B_2  D_4  S_4  
     e(  9 -  9) =     20.85878  eV     1   --> B_1  D_3  S_3  
     e( 10 - 10) =     22.76084  eV     1   --> A_1  D_1  S_1  
     e( 11 - 11) =     24.66538  eV     1   --> A_2  D_2  S_2  
     e( 12 - 12) =     24.80268  eV     1   --> A_1  D_1  S_1  
     e( 13 - 13) =     25.04343  eV     1   --> B_2  D_4  S_4  
     e( 14 - 14) =     31.30248  eV     1   --> B_1  D_3  S_3  
     e( 15 - 15) =     35.93935  eV     1   --> B_2  D_4  S_4  
     e( 16 - 16) =     36.28235  eV     1   --> A_2  D_2  S_2  
     e( 17 - 17) =     38.32582  eV     1   --> A_2  D_2  S_2  
     e( 18 - 18) =     39.42114  eV     1   --> B_2  D_4  S_4  
     e( 19 - 19) =     42.50509  eV     1   --> A_1  D_1  S_1  
     e( 20 - 20) =     45.73215  eV     1   --> A_1  D_1  S_1  

 **************************************************************************

 **************************************************************************

                    xk=(   0.07500,   0.12990,   0.46733  )

     Band symmetry, C_2v (mm2)  point group:

     e(  1 -  1) =    -37.06074  eV     1   --> A_1  D_1  S_1  
     e(  2 -  2) =    -12.00019  eV     1   --> B_2  D_4  S_4  
     e(  3 -  3) =    -10.94324  eV     1   --> A_1  D_1  S_1  
     e(  4 -  4) =    -10.79300  eV     1   --> B_1  D_3  S_3  
     e(  5 -  5) =     11.60768  eV     1   --> B_2  D_4  S_4  
     e(  6 -  6) =     14.82930  eV     1   --> A_1  D_1  S_1  
     e(  7 -  7) =     19.27727  eV     1   --> A_2  D_2  S_2  
     e(  8 -  8) =     19.56634  eV     1   --> B_2  D_4  S_4  
     e(  9 -  9) =     21.03802  eV     1   --> B_1  D_3  S_3  
     e( 10 - 10) =     22.62679  eV     1   --> A_1  D_1  S_1  
     e( 11 - 11) =     24.40913  eV     1   --> A_2  D_2  S_2  
     e( 12 - 12) =     24.72286  eV     1   --> B_2  D_4  S_4  
     e( 13 - 13) =     24.74838  eV     1   --> A_1  D_1  S_1  
     e( 14 - 14) =     31.02036  eV     1   --> B_1  D_3  S_3  
     e( 15 - 15) =     36.06731  eV     1   --> B_2  D_4  S_4  
     e( 16 - 16) =     36.25165  eV     1   --> A_2  D_2  S_2  
     e( 17 - 17) =     38.22016  eV     1   --> A_2  D_2  S_2  
     e( 18 - 18) =     39.17396  eV     1   --> B_2  D_4  S_4  
     e( 19 - 19) =     42.77024  eV     1   --> A_1  D_1  S_1  
     e( 20 - 20) =     46.12845  eV     1   --> A_1  D_1  S_1  

 **************************************************************************

 **************************************************************************

                    xk=(   0.06667,   0.11547,   0.46733  )

     Band symmetry, C_2v (mm2)  point group:

     e(  1 -  1) =    -37.06621  eV     1   --> A_1  D_1  S_1  
     e(  2 -  2) =    -12.00934  eV     1   --> B_2  D_4  S_4  
     e(  3 -  3) =    -10.90474  eV     1   --> A_1  D_1  S_1  
     e(  4 -  4) =    -10.78326  eV     1   --> B_1  D_3  S_3  
     e(  5 -  5) =     11.61889  eV     1   --> B_2  D_4  S_4  
     e(  6 -  6) =     14.70163  eV     1   --> A_1  D_1  S_1  
     e(  7 -  7) =     19.56130  eV     1   --> A_2  D_2  S_2  
     e(  8 -  8) =     19.78478  eV     1   --> B_2  D_4  S_4  
     e(  9 -  9) =     21.21316  eV     1   --> B_1  D_3  S_3  
     e( 10 - 10) =     22.50634  eV     1   --> A_1  D_1  S_1  
     e( 11 - 11) =     24.14962  eV     1   --> A_2  D_2  S_2  
     e( 12 - 12) =     24.40361  eV     1   --> B_2  D_4  S_4  
     e( 13 - 13) =     24.69947  eV     1   --> A_1  D_1  S_1  
     e( 14 - 14) =     30.74727  eV     1   --> B_1  D_3  S_3  
     e( 15 - 15) =     36.18884  eV     1   --> B_2  D_4  S_4  
     e( 16 - 16) =     36.21109  eV     1   --> A_2  D_2  S_2  
     e( 17 - 17) =     38.14170  eV     1   --> A_2  D_2  S_2  
     e( 18 - 18) =     38.94870  eV     1   --> B_2  D_4  S_4  
     e( 19 - 19) =     43.00685  eV     1   --> A_1  D_1  S_1  
     e( 20 - 20) =     46.50394  eV     1   --> B_1  D_3  S_3  

 **************************************************************************

 **************************************************************************

                    xk=(   0.05833,   0.10104,   0.46733  )

     Band symmetry, C_2v (mm2)  point group:

     e(  1 -  1) =    -37.07115  eV     1   --> A_1  D_1  S_1  
     e(  2 -  2) =    -12.01758  eV     1   --> B_2  D_4  S_4  
     e(  3 -  3) =    -10.86961  eV     1   --> A_1  D_1  S_1  
     e(  4 -  4) =    -10.77470  eV     1   --> B_1  D_3  S_3  
     e(  5 -  5) =     11.62886  eV     1   --> B_2  D_4  S_4  
     e(  6 -  6) =     14.58682  eV     1   --> A_1  D_1  S_1  
     e(  7 -  7) =     19.84601  eV     1   --> A_2  D_2  S_2  
     e(  8 -  8) =     20.01271  eV     1   --> B_2  D_4  S_4  
     e(  9 -  9) =     21.38119  eV     1   --> B_1  D_3  S_3  
     e( 10 - 10) =     22.39970  eV     1   --> A_1  D_1  S_1  
     e( 11 - 11) =     23.88626  eV     1   --> A_2  D_2  S_2  
     e( 12 - 12) =     24.08632  eV     1   --> B_2  D_4  S_4  
     e( 13 - 13) =     24.65602  eV     1   --> A_1  D_1  S_1  
     e( 14 - 14) =     30.48819  eV     1   --> B_1  D_3  S_3  
     e( 15 - 15) =     36.15927  eV     1   --> A_2  D_2  S_2  
     e( 16 - 16) =     36.30294  eV     1   --> B_2  D_4  S_4  
     e( 17 - 17) =     38.08623  eV     1   --> A_2  D_2  S_2  
     e( 18 - 18) =     38.74381  eV     1   --> B_2  D_4  S_4  
     e( 19 - 19) =     43.21534  eV     1   --> A_1  D_1  S_1  
     e( 20 - 20) =     46.88325  eV     1   --> B_1  D_3  S_3  

 **************************************************************************

 **************************************************************************

                    xk=(   0.05000,   0.08660,   0.46733  )

     Band symmetry, C_2v (mm2)  point group:

     e(  1 -  1) =    -37.07550  eV     1   --> A_1  D_1  S_1  
     e(  2 -  2) =    -12.02485  eV     1   --> B_2  D_4  S_4  
     e(  3 -  3) =    -10.83826  eV     1   --> A_1  D_1  S_1  
     e(  4 -  4) =    -10.76729  eV     1   --> B_1  D_3  S_3  
     e(  5 -  5) =     11.63778  eV     1   --> B_2  D_4  S_4  
     e(  6 -  6) =     14.48570  eV     1   --> A_1  D_1  S_1  
     e(  7 -  7) =     20.13168  eV     1   --> A_2  D_2  S_2  
     e(  8 -  8) =     20.24995  eV     1   --> B_2  D_4  S_4  
     e(  9 -  9) =     21.53877  eV     1   --> B_1  D_3  S_3  
     e( 10 - 10) =     22.30704  eV     1   --> A_1  D_1  S_1  
     e( 11 - 11) =     23.62046  eV     1   --> A_2  D_2  S_2  
     e( 12 - 12) =     23.77201  eV     1   --> B_2  D_4  S_4  
     e( 13 - 13) =     24.61816  eV     1   --> A_1  D_1  S_1  
     e( 14 - 14) =     30.24920  eV     1   --> B_1  D_3  S_3  
     e( 15 - 15) =     36.10502  eV     1   --> A_2  D_2  S_2  
     e( 16 - 16) =     36.40898  eV     1   --> B_2  D_4  S_4  
     e( 17 - 17) =     38.04931  eV     1   --> A_2  D_2  S_2  
     e( 18 - 18) =     38.56096  eV     1   --> B_2  D_4  S_4  
     e( 19 - 19) =     43.39657  eV     1   --> A_1  D_1  S_1  
     e( 20 - 20) =     47.27573  eV     1   --> B_1  D_3  S_3  

 **************************************************************************

 **************************************************************************

                    xk=(   0.04167,   0.07217,   0.46733  )

     Band symmetry, C_2v (mm2)  point group:

     e(  1 -  1) =    -37.07926  eV     1   --> A_1  D_1  S_1  
     e(  2 -  2) =    -12.03110  eV     1   --> B_2  D_4  S_4  
     e(  3 -  3) =    -10.81107  eV     1   --> A_1  D_1  S_1  
     e(  4 -  4) =    -10.76105  eV     1   --> B_1  D_3  S_3  
     e(  5 -  5) =     11.64549  eV     1   --> B_2  D_4  S_4  
     e(  6 -  6) =     14.39896  eV     1   --> A_1  D_1  S_1  
     e(  7 -  7) =     20.41577  eV     1   --> A_2  D_2  S_2  
     e(  8 -  8) =     20.49395  eV     1   --> B_2  D_4  S_4  
     e(  9 -  9) =     21.68200  eV     1   --> B_1  D_3  S_3  
     e( 10 - 10) =     22.22847  eV     1   --> A_1  D_1  S_1  
     e( 11 - 11) =     23.35210  eV     1   --> A_2  D_2  S_2  
     e( 12 - 12) =     23.46053  eV     1   --> B_2  D_4  S_4  
     e( 13 - 13) =     24.58601  eV     1   --> A_1  D_1  S_1  
     e( 14 - 14) =     30.03394  eV     1   --> B_1  D_3  S_3  
     e( 15 - 15) =     36.04963  eV     1   --> A_2  D_2  S_2  
     e( 16 - 16) =     36.50531  eV     1   --> B_2  D_4  S_4  
     e( 17 - 17) =     38.02504  eV     1   --> A_2  D_2  S_2  
     e( 18 - 18) =     38.40105  eV     1   --> B_2  D_4  S_4  
     e( 19 - 19) =     43.55056  eV     1   --> A_1  D_1  S_1  
     e( 20 - 20) =     47.67716  eV     1   --> B_1  D_3  S_3  

 **************************************************************************

 **************************************************************************

                    xk=(   0.03333,   0.05774,   0.46733  )

     Band symmetry, C_2v (mm2)  point group:

     e(  1 -  1) =    -37.08237  eV     1   --> A_1  D_1  S_1  
     e(  2 -  2) =    -12.03627  eV     1   --> B_2  D_4  S_4  
     e(  3 -  3) =    -10.78836  eV     1   --> A_1  D_1  S_1  
     e(  4 -  4) =    -10.75595  eV     1   --> B_1  D_3  S_3  
     e(  5 -  5) =     11.65181  eV     1   --> B_2  D_4  S_4  
     e(  6 -  6) =     14.32715  eV     1   --> A_1  D_1  S_1  
     e(  7 -  7) =     20.69818  eV     1   --> A_2  D_2  S_2  
     e(  8 -  8) =     20.74473  eV     1   --> B_2  D_4  S_4  
     e(  9 -  9) =     21.80696  eV     1   --> B_1  D_3  S_3  
     e( 10 - 10) =     22.16409  eV     1   --> A_1  D_1  S_1  
     e( 11 - 11) =     23.08316  eV     1   --> A_2  D_2  S_2  
     e( 12 - 12) =     23.15567  eV     1   --> B_2  D_4  S_4  
     e( 13 - 13) =     24.55956  eV     1   --> A_1  D_1  S_1  
     e( 14 - 14) =     29.84856  eV     1   --> B_1  D_3  S_3  
     e( 15 - 15) =     35.99930  eV     1   --> A_2  D_2  S_2  
     e( 16 - 16) =     36.59032  eV     1   --> B_2  D_4  S_4  
     e( 17 - 17) =     38.01158  eV     1   --> A_2  D_2  S_2  
     e( 18 - 18) =     38.26428  eV     1   --> B_2  D_4  S_4  
     e( 19 - 19) =     43.67588  eV     1   --> A_1  D_1  S_1  
     e( 20 - 20) =     48.08175  eV     1   --> B_1  D_3  S_3  

 **************************************************************************

 **************************************************************************

                    xk=(   0.02500,   0.04330,   0.46733  )

     Band symmetry, C_2v (mm2)  point group:

     e(  1 -  1) =    -37.08482  eV     1   --> A_1  D_1  S_1  
     e(  2 -  2) =    -12.04034  eV     1   --> B_2  D_4  S_4  
     e(  3 -  3) =    -10.77039  eV     1   --> A_1  D_1  S_1  
     e(  4 -  4) =    -10.75199  eV     1   --> B_1  D_3  S_3  
     e(  5 -  5) =     11.65666  eV     1   --> B_2  D_4  S_4  
     e(  6 -  6) =     14.27078  eV     1   --> A_1  D_1  S_1  
     e(  7 -  7) =     20.97546  eV     1   --> A_2  D_2  S_2  
     e(  8 -  8) =     20.99862  eV     1   --> B_2  D_4  S_4  
     e(  9 -  9) =     21.90959  eV     1   --> B_1  D_3  S_3  
     e( 10 - 10) =     22.11396  eV     1   --> A_1  D_1  S_1  
     e( 11 - 11) =     22.81544  eV     1   --> A_2  D_2  S_2  
     e( 12 - 12) =     22.85845  eV     1   --> B_2  D_4  S_4  
     e( 13 - 13) =     24.53892  eV     1   --> A_1  D_1  S_1  
     e( 14 - 14) =     29.69793  eV     1   --> B_1  D_3  S_3  
     e( 15 - 15) =     35.95654  eV     1   --> A_2  D_2  S_2  
     e( 16 - 16) =     36.66181  eV     1   --> B_2  D_4  S_4  
     e( 17 - 17) =     38.00371  eV     1   --> A_2  D_2  S_2  
     e( 18 - 18) =     38.15245  eV     1   --> B_2  D_4  S_4  
     e( 19 - 19) =     43.77331  eV     1   --> A_1  D_1  S_1  
     e( 20 - 20) =     48.47951  eV     1   --> B_1  D_3  S_3  

 **************************************************************************

 **************************************************************************

                    xk=(   0.01667,   0.02887,   0.46733  )

     Band symmetry, C_2v (mm2)  point group:

     e(  1 -  1) =    -37.08658  eV     1   --> A_1  D_1  S_1  
     e(  2 -  2) =    -12.04327  eV     1   --> B_2  D_4  S_4  
     e(  3 -  3) =    -10.75740  eV     1   --> A_1  D_1  S_1  
     e(  4 -  4) =    -10.74917  eV     1   --> B_1  D_3  S_3  
     e(  5 -  5) =     11.66012  eV     1   --> B_2  D_4  S_4  
     e(  6 -  6) =     14.23023  eV     1   --> A_1  D_1  S_1  
     e(  7 -  7) =     21.24050  eV     1   --> A_2  D_2  S_2  
     e(  8 -  8) =     21.24890  eV     1   --> B_2  D_4  S_4  
     e(  9 -  9) =     21.98612  eV     1   --> B_1  D_3  S_3  
     e( 10 - 10) =     22.07813  eV     1   --> A_1  D_1  S_1  
     e( 11 - 11) =     22.55599  eV     1   --> A_2  D_2  S_2  
     e( 12 - 12) =     22.57784  eV     1   --> B_2  D_4  S_4  
     e( 13 - 13) =     24.52414  eV     1   --> A_1  D_1  S_1  
     e( 14 - 14) =     29.58659  eV     1   --> B_1  D_3  S_3  
     e( 15 - 15) =     35.92427  eV     1   --> A_2  D_2  S_2  
     e( 16 - 16) =     36.71684  eV     1   --> B_2  D_4  S_4  
     e( 17 - 17) =     38.00025  eV     1   --> A_2  D_2  S_2  
     e( 18 - 18) =     38.06809  eV     1   --> B_2  D_4  S_4  
     e( 19 - 19) =     43.84295  eV     1   --> A_1  D_1  S_1  
     e( 20 - 20) =     48.85024  eV     1   --> B_1  D_3  S_3  

 **************************************************************************

 **************************************************************************

                    xk=(   0.00833,   0.01443,   0.46733  )

     Band symmetry, C_2v (mm2)  point group:

     e(  1 -  1) =    -37.08764  eV     1   --> A_1  D_1  S_1  
     e(  2 -  2) =    -12.04504  eV     1   --> B_2  D_4  S_4  
     e(  3 -  3) =    -10.74954  eV     1   --> A_1  D_1  S_1  
     e(  4 -  4) =    -10.74748  eV     1   --> B_1  D_3  S_3  
     e(  5 -  5) =     11.66227  eV     1   --> B_2  D_4  S_4  
     e(  6 -  6) =     14.20578  eV     1   --> A_1  D_1  S_1  
     e(  7 -  7) =     21.47164  eV     1   --> A_2  D_2  S_2  
     e(  8 -  8) =     21.47277  eV     1   --> B_2  D_4  S_4  
     e(  9 -  9) =     22.03343  eV     1   --> B_1  D_3  S_3  
     e( 10 - 10) =     22.05662  eV     1   --> A_1  D_1  S_1  
     e( 11 - 11) =     22.32941  eV     1   --> A_2  D_2  S_2  
     e( 12 - 12) =     22.33585  eV     1   --> B_2  D_4  S_4  
     e( 13 - 13) =     24.51526  eV     1   --> A_1  D_1  S_1  
     e( 14 - 14) =     29.51824  eV     1   --> B_1  D_3  S_3  
     e( 15 - 15) =     35.90448  eV     1   --> A_2  D_2  S_2  
     e( 16 - 16) =     36.75199  eV     1   --> B_2  D_4  S_4  
     e( 17 - 17) =     37.99887  eV     1   --> A_2  D_2  S_2  
     e( 18 - 18) =     38.01620  eV     1   --> B_2  D_4  S_4  
     e( 19 - 19) =     43.88483  eV     1   --> A_1  D_1  S_1  
     e( 20 - 20) =     49.14658  eV     1   --> B_1  D_3  S_3  

 **************************************************************************

 **************************************************************************

                    xk=(   0.00000,   0.00000,   0.46733  )

     point group D_6h(6/mmm)
     there are 12 classes
     the character table:

       E     2C6   2C3   C2    3C2'  3C2'' i     2S3   2S6   s_h   3s_d  3s_v 
A_1g   1.00  1.00  1.00  1.00  1.00  1.00  1.00  1.00  1.00  1.00  1.00  1.00
A_2g   1.00  1.00  1.00  1.00 -1.00 -1.00  1.00  1.00  1.00  1.00 -1.00 -1.00
B_1g   1.00 -1.00  1.00 -1.00  1.00 -1.00  1.00 -1.00  1.00 -1.00  1.00 -1.00
B_2g   1.00 -1.00  1.00 -1.00 -1.00  1.00  1.00 -1.00  1.00 -1.00 -1.00  1.00
E_1g   2.00  1.00 -1.00 -2.00  0.00  0.00  2.00  1.00 -1.00 -2.00  0.00  0.00
E_2g   2.00 -1.00 -1.00  2.00  0.00  0.00  2.00 -1.00 -1.00  2.00  0.00  0.00
A_1u   1.00  1.00  1.00  1.00  1.00  1.00 -1.00 -1.00 -1.00 -1.00 -1.00 -1.00
A_2u   1.00  1.00  1.00  1.00 -1.00 -1.00 -1.00 -1.00 -1.00 -1.00  1.00  1.00
B_1u   1.00 -1.00  1.00 -1.00  1.00 -1.00 -1.00  1.00 -1.00  1.00 -1.00  1.00
B_2u   1.00 -1.00  1.00 -1.00 -1.00  1.00 -1.00  1.00 -1.00  1.00  1.00 -1.00
E_1u   2.00  1.00 -1.00 -2.00  0.00  0.00 -2.00 -1.00  1.00  2.00  0.00  0.00
E_2u   2.00 -1.00 -1.00  2.00  0.00  0.00 -2.00  1.00  1.00 -2.00  0.00  0.00

     the symmetry operations in each class and the name of the first element:

     E        1
                                                                 
     2C6      5    6
                                                                 
     2C3      7    8
                                                                 
     C2       2
                                                                 
     3C2'     4   12   11
                                                                 
     3C2''    3    9   10
                                                                 
     i       13
                                                                 
     2S3     17   18
                                                                 
     2S6     19   20
                                                                 
     s_h     14
                                                                 
     3s_d    16   24   23
                                                                 
     3s_v    15   21   22
                                                                 

     Band symmetry, D_6h(6/mmm) point group:

     e(  1 -  1) =    -37.08800  eV     1   --> A_1g           
     e(  2 -  2) =    -12.04563  eV     1   --> A_2u           
     e(  3 -  4) =    -10.74691  eV     2   --> E_1u           
     e(  5 -  5) =     11.66299  eV     1   --> A_2u           
     e(  6 -  6) =     14.19762  eV     1   --> A_1g           
     e(  7 -  8) =     21.58366  eV     2   --> E_1g           
     e(  9 - 10) =     22.04944  eV     2   --> E_2g           
     e( 11 - 12) =     22.21892  eV     2   --> E_2u           
     e( 13 - 13) =     24.51229  eV     1   --> A_1g           
     e( 14 - 14) =     29.49518  eV     1   --> B_2u           
     e( 15 - 15) =     35.89777  eV     1   --> B_1g           
     e( 16 - 16) =     36.76412  eV     1   --> A_2u           
     e( 17 - 18) =     37.99851  eV     2   --> E_1g           
     e( 19 - 19) =     43.89880  eV     1   --> A_1g           
     e( 20 - 20) =     49.27033  eV     1   -->   ?

 **************************************************************************
 
     BANDS        :      5.86s CPU      6.38s WALL

 
   This run was terminated on:   6: 5:16  28Apr2022            

=------------------------------------------------------------------------------=
   JOB DONE.
=------------------------------------------------------------------------------=
