
     Program PHONON v.7.0 starts on 15Jun2022 at  0:37:26 

     This program is part of the open-source Quantum ESPRESSO suite
     for quantum simulation of materials; please cite
         "P. Giannozzi et al., J. Phys.:Condens. Matter 21 395502 (2009);
         "P. Giannozzi et al., J. Phys.:Condens. Matter 29 465901 (2017);
         "P. Giannozzi et al., J. Chem. Phys. 152 154105 (2020);
          URL http://www.quantum-espresso.org", 
     in publications or presentations arising from this work. More details at
     http://www.quantum-espresso.org/quote

     Parallel version (MPI), running on     8 processors

     MPI processes distributed on     1 nodes
     R & G space division:  proc/nbgrp/npool/nimage =       8
     4090 MiB available memory on the printing compute node when the environment starts
 
     Reading input from mob2_fonon_03.in

     Reading xml data from directory:

     ./tmp/mob2.save/

     IMPORTANT: XC functional enforced from input :
     Exchange-correlation= PBE
                           (   1   4   3   4   0   0   0)
     Any further DFT definition will be discarded
     Please, verify this is what you really want

 
     Parallelization info
     --------------------
     sticks:   dense  smooth     PW     G-vecs:    dense   smooth      PW
     Min         199      56     18                 6901     1046     192
     Max         200      57     19                 6904     1049     195
     Sum        1597     451    151                55227     8373    1545
 
     Using Slab Decomposition
 
     Reading collected, re-writing distributed wavefunctions


     Dynamical matrices for ( 3, 3, 3)  uniform grid of q-points
     (   6 q-points):
       N         xq(1)         xq(2)         xq(3) 
       1   0.000000000   0.000000000   0.000000000
       2   0.000000000   0.000000000   0.311376641
       3   0.000000000   0.384900179   0.000000000
       4   0.000000000   0.384900179   0.311376641
       5   0.333333333   0.577350269   0.000000000
       6   0.333333333   0.577350269   0.311376641

     Calculation of q =    0.0000000   0.3849002   0.0000000

     Subspace diagonalization in iterative solution of the eigenvalue problem:
     a serial algorithm will be used

 
     Parallelization info
     --------------------
     sticks:   dense  smooth     PW     G-vecs:    dense   smooth      PW
     Min         199      56     19                 6901     1046     212
     Max         200      57     22                 6904     1049     213
     Sum        1597     451    163                55227     8373    1703
 
     Using Slab Decomposition
 

     Title: 
     Phonon calc for qp03                                                       


     bravais-lattice index     =            4
     lattice parameter (alat)  =       5.8733  a.u.
     unit-cell volume          =     187.8355 (a.u.)^3
     number of atoms/cell      =            3
     number of atomic types    =            2
     number of electrons       =        19.00
     number of Kohn-Sham states=           20
     kinetic-energy cutoff     =      48.0000  Ry
     charge density cutoff     =     672.0000  Ry
     Exchange-correlation= PBE
                           (   1   4   3   4   0   0   0)

     celldm(1)=   5.873335  celldm(2)=   0.000000  celldm(3)=   1.070515
     celldm(4)=   0.000000  celldm(5)=   0.000000  celldm(6)=   0.000000

     crystal axes: (cart. coord. in units of alat)
               a(1) = (   1.000000   0.000000   0.000000 )  
               a(2) = (  -0.500000   0.866025   0.000000 )  
               a(3) = (   0.000000   0.000000   1.070515 )  

     reciprocal axes: (cart. coord. in units 2 pi/alat)
               b(1) = (  1.000000  0.577350  0.000000 )  
               b(2) = (  0.000000  1.154701  0.000000 )  
               b(3) = (  0.000000  0.000000  0.934130 )  


     PseudoPot. # 1 for Xx read from file:
     /home/marcocarmonaga/Apps/qe-7.0/pseudo/Nb1.00Mo0.00.upf
     MD5 check sum: e4b562b21cfca1bf7e2ab47e57cae993
     Pseudo is Norm-conserving, Zval = 13.0
     Generated using virtual.x code
     Using radial grid of  602 points, 12 beta functions with: 
                l(1) =   0
                l(2) =   0
                l(3) =   1
                l(4) =   1
                l(5) =   2
                l(6) =   2
                l(7) =   0
                l(8) =   0
                l(9) =   1
               l(10) =   1
               l(11) =   2
               l(12) =   2

     PseudoPot. # 2 for B  read from file:
     /home/marcocarmonaga/Apps/qe-7.0/pseudo/B_ONCV_PBE-1.2.upf
     MD5 check sum: eb3cbeacc2d324d57d903df00f564d27
     Pseudo is Norm-conserving, Zval =  3.0
     Generated using ONCVPSP code by D. R. Hamann
     Using radial grid of  602 points,  4 beta functions with: 
                l(1) =   0
                l(2) =   0
                l(3) =   1
                l(4) =   1

     atomic species   valence    mass     pseudopotential
        Mo            13.00    92.90600     Xx( 1.00)
        B              3.00    10.81000     B ( 1.00)

     24 Sym. Ops., with inversion, found



   Cartesian axes

     site n.     atom                  positions (alat units)
         1           Mo  tau(   1) = (   0.0000000   0.0000000   0.0000000  )
         2           B   tau(   2) = (   0.5000000   0.2886751   0.5352574  )
         3           B   tau(   3) = (   0.0000000   0.5773503   0.5352574  )

     number of k points=  3078  Gaussian smearing, width (Ry)=  0.0150

     Number of k-points >= 100: set verbosity='high' to print them.

     Dense  grid:    55227 G-vectors     FFT dimensions: (  50,  50,  54)

     Smooth grid:     8373 G-vectors     FFT dimensions: (  25,  25,  27)

     Estimated max dynamical RAM per process >     141.86 MB

     Estimated total dynamical RAM >       1.11 GB

     The potential is recalculated from file :
     ./tmp/_ph0/mob2.save/charge-density

     Starting wfcs are    0 atomic +   20 random wfcs

     Band Structure Calculation
     Davidson diagonalization with overlap

     ethr =  5.26E-11,  avg # of iterations = 22.8

     total cpu time spent up to now is      251.8 secs

     End of band structure calculation

     Number of k-points >= 100: set verbosity='high' to print the bands.

     the Fermi energy is    18.4715 ev

     Phonon calc for qp03                                                       

     bravais-lattice index     =            4
     lattice parameter (alat)  =       5.8733  a.u.
     unit-cell volume          =     187.8355 (a.u.)^3
     number of atoms/cell      =            3
     number of atomic types    =            2
     kinetic-energy cut-off    =      48.0000  Ry
     charge density cut-off    =     672.0000  Ry
     convergence threshold     =      1.0E-14
     beta                      =       0.7000
     number of iterations used =            4
     Exchange-correlation= PBE
                           (   1   4   3   4   0   0   0)


     celldm(1)=    5.87334  celldm(2)=    0.00000  celldm(3)=    1.07051
     celldm(4)=    0.00000  celldm(5)=    0.00000  celldm(6)=    0.00000

     crystal axes: (cart. coord. in units of alat)
               a(1) = (  1.0000  0.0000  0.0000 )  
               a(2) = ( -0.5000  0.8660  0.0000 )  
               a(3) = (  0.0000  0.0000  1.0705 )  

     reciprocal axes: (cart. coord. in units 2 pi/alat)
               b(1) = (  1.0000  0.5774  0.0000 )  
               b(2) = (  0.0000  1.1547  0.0000 )  
               b(3) = (  0.0000  0.0000  0.9341 )  


     Atoms inside the unit cell: 

     Cartesian axes

     site n.  atom      mass           positions (alat units)
        1     Mo  92.9060   tau(    1) = (    0.00000    0.00000    0.00000  )
        2     B   10.8100   tau(    2) = (    0.50000    0.28868    0.53526  )
        3     B   10.8100   tau(    3) = (    0.00000    0.57735    0.53526  )

     Computing dynamical matrix for 
                    q = (   0.0000000   0.3849002   0.0000000 )
 
      4 Sym.Ops. (no q -> -q+G )


     G cutoff =  587.1906  (   6903 G-vectors)     FFT grid: ( 50, 50, 54)
     G cutoff =  167.7687  (   1049 G-vectors)  smooth grid: ( 25, 25, 27)

     number of k points=  3078  Gaussian smearing, width (Ry)=  0.0150

     PseudoPot. # 1 for Xx read from file:
     /home/marcocarmonaga/Apps/qe-7.0/pseudo/Nb1.00Mo0.00.upf
     MD5 check sum: e4b562b21cfca1bf7e2ab47e57cae993
     Pseudo is Norm-conserving, Zval = 13.0
     Generated using virtual.x code
     Using radial grid of  602 points, 12 beta functions with: 
                l(1) =   0
                l(2) =   0
                l(3) =   1
                l(4) =   1
                l(5) =   2
                l(6) =   2
                l(7) =   0
                l(8) =   0
                l(9) =   1
               l(10) =   1
               l(11) =   2
               l(12) =   2

     PseudoPot. # 2 for B  read from file:
     /home/marcocarmonaga/Apps/qe-7.0/pseudo/B_ONCV_PBE-1.2.upf
     MD5 check sum: eb3cbeacc2d324d57d903df00f564d27
     Pseudo is Norm-conserving, Zval =  3.0
     Generated using ONCVPSP code by D. R. Hamann
     Using radial grid of  602 points,  4 beta functions with: 
                l(1) =   0
                l(2) =   0
                l(3) =   1
                l(4) =   1

     Mode symmetry, C_2v (mm2)  point group:


     Atomic displacements:
     There are    9 irreducible representations

     Representation     1      1 modes -  To be done

     Representation     2      1 modes -  To be done

     Representation     3      1 modes -  To be done

     Representation     4      1 modes -  To be done

     Representation     5      1 modes -  To be done

     Representation     6      1 modes -  To be done

     Representation     7      1 modes -  To be done

     Representation     8      1 modes -  To be done

     Representation     9      1 modes -  To be done



     Alpha used in Ewald sum =   2.8000
     PHONON       :   4m13.33s CPU   4m20.50s WALL



     Representation #   1 mode #   1

     Self-consistent Calculation

      iter #   1 total cpu time :   289.8 secs   av.it.:   7.3
      thresh= 1.000E-02 alpha_mix =  0.700 |ddv_scf|^2 =  1.712E-04

      iter #   2 total cpu time :   328.6 secs   av.it.:  12.4
      thresh= 1.308E-03 alpha_mix =  0.700 |ddv_scf|^2 =  9.410E-03

      iter #   3 total cpu time :   359.7 secs   av.it.:   9.3
      thresh= 9.701E-03 alpha_mix =  0.700 |ddv_scf|^2 =  3.474E-06

      iter #   4 total cpu time :   397.6 secs   av.it.:  12.0
      thresh= 1.864E-04 alpha_mix =  0.700 |ddv_scf|^2 =  5.978E-07

      iter #   5 total cpu time :   434.3 secs   av.it.:  11.6
      thresh= 7.732E-05 alpha_mix =  0.700 |ddv_scf|^2 =  1.867E-08

      iter #   6 total cpu time :   472.3 secs   av.it.:  12.0
      thresh= 1.366E-05 alpha_mix =  0.700 |ddv_scf|^2 =  3.856E-10

      iter #   7 total cpu time :   510.5 secs   av.it.:  12.1
      thresh= 1.964E-06 alpha_mix =  0.700 |ddv_scf|^2 =  5.882E-09

      iter #   8 total cpu time :   543.3 secs   av.it.:   9.7
      thresh= 7.669E-06 alpha_mix =  0.700 |ddv_scf|^2 =  3.674E-11

      iter #   9 total cpu time :   580.4 secs   av.it.:  11.7
      thresh= 6.062E-07 alpha_mix =  0.700 |ddv_scf|^2 =  1.252E-10

      iter #  10 total cpu time :   613.2 secs   av.it.:  10.0
      thresh= 1.119E-06 alpha_mix =  0.700 |ddv_scf|^2 =  9.083E-13

      iter #  11 total cpu time :   653.2 secs   av.it.:  12.8
      thresh= 9.531E-08 alpha_mix =  0.700 |ddv_scf|^2 =  1.503E-12

      iter #  12 total cpu time :   689.9 secs   av.it.:  11.6
      thresh= 1.226E-07 alpha_mix =  0.700 |ddv_scf|^2 =  4.455E-13

      iter #  13 total cpu time :   725.9 secs   av.it.:  11.3
      thresh= 6.675E-08 alpha_mix =  0.700 |ddv_scf|^2 =  1.066E-14

      iter #  14 total cpu time :   764.4 secs   av.it.:  12.2
      thresh= 1.033E-08 alpha_mix =  0.700 |ddv_scf|^2 =  2.105E-14

      iter #  15 total cpu time :   798.9 secs   av.it.:  10.7
      thresh= 1.451E-08 alpha_mix =  0.700 |ddv_scf|^2 =  9.080E-17

     End of self-consistent calculation

     Convergence has been achieved 


     Representation #   2 mode #   2

     Self-consistent Calculation

      iter #   1 total cpu time :   836.5 secs   av.it.:   9.4
      thresh= 1.000E-02 alpha_mix =  0.700 |ddv_scf|^2 =  2.710E-03

      iter #   2 total cpu time :   875.9 secs   av.it.:  12.3
      thresh= 5.206E-03 alpha_mix =  0.700 |ddv_scf|^2 =  1.385E-01

      iter #   3 total cpu time :   912.0 secs   av.it.:  11.2
      thresh= 1.000E-02 alpha_mix =  0.700 |ddv_scf|^2 =  2.585E-04

      iter #   4 total cpu time :   947.9 secs   av.it.:  11.3
      thresh= 1.608E-03 alpha_mix =  0.700 |ddv_scf|^2 =  2.481E-05

      iter #   5 total cpu time :   983.1 secs   av.it.:  10.9
      thresh= 4.981E-04 alpha_mix =  0.700 |ddv_scf|^2 =  6.790E-07

      iter #   6 total cpu time :  1019.5 secs   av.it.:  11.4
      thresh= 8.240E-05 alpha_mix =  0.700 |ddv_scf|^2 =  1.574E-08

      iter #   7 total cpu time :  1055.2 secs   av.it.:  11.2
      thresh= 1.254E-05 alpha_mix =  0.700 |ddv_scf|^2 =  1.904E-11

      iter #   8 total cpu time :  1095.2 secs   av.it.:  12.8
      thresh= 4.363E-07 alpha_mix =  0.700 |ddv_scf|^2 =  5.416E-11

      iter #   9 total cpu time :  1130.1 secs   av.it.:  10.8
      thresh= 7.360E-07 alpha_mix =  0.700 |ddv_scf|^2 =  7.306E-11

      iter #  10 total cpu time :  1164.5 secs   av.it.:  10.6
      thresh= 8.547E-07 alpha_mix =  0.700 |ddv_scf|^2 =  3.087E-12

      iter #  11 total cpu time :  1202.6 secs   av.it.:  11.9
      thresh= 1.757E-07 alpha_mix =  0.700 |ddv_scf|^2 =  1.912E-12

      iter #  12 total cpu time :  1235.9 secs   av.it.:  10.2
      thresh= 1.383E-07 alpha_mix =  0.700 |ddv_scf|^2 =  7.530E-13

      iter #  13 total cpu time :  1270.9 secs   av.it.:  10.9
      thresh= 8.678E-08 alpha_mix =  0.700 |ddv_scf|^2 =  1.163E-13

      iter #  14 total cpu time :  1306.8 secs   av.it.:  11.3
      thresh= 3.410E-08 alpha_mix =  0.700 |ddv_scf|^2 =  4.632E-15

     End of self-consistent calculation

     Convergence has been achieved 


     Representation #   3 mode #   3

     Self-consistent Calculation

      iter #   1 total cpu time :  1337.2 secs   av.it.:   7.3
      thresh= 1.000E-02 alpha_mix =  0.700 |ddv_scf|^2 =  1.712E-04

      iter #   2 total cpu time :  1376.2 secs   av.it.:  12.4
      thresh= 1.308E-03 alpha_mix =  0.700 |ddv_scf|^2 =  9.410E-03

      iter #   3 total cpu time :  1407.3 secs   av.it.:   9.3
      thresh= 9.701E-03 alpha_mix =  0.700 |ddv_scf|^2 =  3.474E-06

      iter #   4 total cpu time :  1445.2 secs   av.it.:  12.0
      thresh= 1.864E-04 alpha_mix =  0.700 |ddv_scf|^2 =  5.978E-07

      iter #   5 total cpu time :  1482.0 secs   av.it.:  11.6
      thresh= 7.732E-05 alpha_mix =  0.700 |ddv_scf|^2 =  1.867E-08

      iter #   6 total cpu time :  1520.5 secs   av.it.:  12.0
      thresh= 1.366E-05 alpha_mix =  0.700 |ddv_scf|^2 =  3.839E-10

      iter #   7 total cpu time :  1559.0 secs   av.it.:  12.1
      thresh= 1.959E-06 alpha_mix =  0.700 |ddv_scf|^2 =  5.879E-09

      iter #   8 total cpu time :  1591.2 secs   av.it.:   9.7
      thresh= 7.667E-06 alpha_mix =  0.700 |ddv_scf|^2 =  3.678E-11

      iter #   9 total cpu time :  1628.5 secs   av.it.:  11.7
      thresh= 6.065E-07 alpha_mix =  0.700 |ddv_scf|^2 =  1.252E-10

      iter #  10 total cpu time :  1661.2 secs   av.it.:  10.0
      thresh= 1.119E-06 alpha_mix =  0.700 |ddv_scf|^2 =  9.080E-13

      iter #  11 total cpu time :  1701.3 secs   av.it.:  12.8
      thresh= 9.529E-08 alpha_mix =  0.700 |ddv_scf|^2 =  1.504E-12

      iter #  12 total cpu time :  1738.6 secs   av.it.:  11.6
      thresh= 1.226E-07 alpha_mix =  0.700 |ddv_scf|^2 =  4.458E-13

      iter #  13 total cpu time :  1774.6 secs   av.it.:  11.3
      thresh= 6.677E-08 alpha_mix =  0.700 |ddv_scf|^2 =  1.067E-14

      iter #  14 total cpu time :  1813.1 secs   av.it.:  12.2
      thresh= 1.033E-08 alpha_mix =  0.700 |ddv_scf|^2 =  2.111E-14

      iter #  15 total cpu time :  1848.2 secs   av.it.:  10.7
      thresh= 1.453E-08 alpha_mix =  0.700 |ddv_scf|^2 =  9.115E-17

     End of self-consistent calculation

     Convergence has been achieved 


     Representation #   4 mode #   4

     Self-consistent Calculation

      iter #   1 total cpu time :  1875.5 secs   av.it.:   6.2
      thresh= 1.000E-02 alpha_mix =  0.700 |ddv_scf|^2 =  3.682E-07

      iter #   2 total cpu time :  1914.4 secs   av.it.:  12.4
      thresh= 6.068E-05 alpha_mix =  0.700 |ddv_scf|^2 =  4.620E-08

      iter #   3 total cpu time :  1952.4 secs   av.it.:  12.2
      thresh= 2.149E-05 alpha_mix =  0.700 |ddv_scf|^2 =  6.841E-10

      iter #   4 total cpu time :  1989.7 secs   av.it.:  11.9
      thresh= 2.616E-06 alpha_mix =  0.700 |ddv_scf|^2 =  3.670E-11

      iter #   5 total cpu time :  2025.9 secs   av.it.:  11.5
      thresh= 6.058E-07 alpha_mix =  0.700 |ddv_scf|^2 =  4.976E-14

      iter #   6 total cpu time :  2066.0 secs   av.it.:  12.9
      thresh= 2.231E-08 alpha_mix =  0.700 |ddv_scf|^2 =  3.646E-16

     End of self-consistent calculation

     Convergence has been achieved 


     Representation #   5 mode #   5

     Self-consistent Calculation

      iter #   1 total cpu time :  2093.2 secs   av.it.:   6.2
      thresh= 1.000E-02 alpha_mix =  0.700 |ddv_scf|^2 =  3.682E-07

      iter #   2 total cpu time :  2132.0 secs   av.it.:  12.4
      thresh= 6.068E-05 alpha_mix =  0.700 |ddv_scf|^2 =  4.620E-08

      iter #   3 total cpu time :  2170.7 secs   av.it.:  12.2
      thresh= 2.149E-05 alpha_mix =  0.700 |ddv_scf|^2 =  6.841E-10

      iter #   4 total cpu time :  2208.0 secs   av.it.:  11.9
      thresh= 2.616E-06 alpha_mix =  0.700 |ddv_scf|^2 =  3.670E-11

      iter #   5 total cpu time :  2244.2 secs   av.it.:  11.5
      thresh= 6.058E-07 alpha_mix =  0.700 |ddv_scf|^2 =  4.976E-14

      iter #   6 total cpu time :  2284.2 secs   av.it.:  12.9
      thresh= 2.231E-08 alpha_mix =  0.700 |ddv_scf|^2 =  3.646E-16

     End of self-consistent calculation

     Convergence has been achieved 


     Representation #   6 mode #   6

     Self-consistent Calculation

      iter #   1 total cpu time :  2318.1 secs   av.it.:   8.2
      thresh= 1.000E-02 alpha_mix =  0.700 |ddv_scf|^2 =  1.036E-05

      iter #   2 total cpu time :  2356.5 secs   av.it.:  12.3
      thresh= 3.219E-04 alpha_mix =  0.700 |ddv_scf|^2 =  1.810E-06

      iter #   3 total cpu time :  2394.2 secs   av.it.:  12.1
      thresh= 1.345E-04 alpha_mix =  0.700 |ddv_scf|^2 =  1.494E-09

      iter #   4 total cpu time :  2433.0 secs   av.it.:  12.5
      thresh= 3.865E-06 alpha_mix =  0.700 |ddv_scf|^2 =  1.132E-10

      iter #   5 total cpu time :  2470.8 secs   av.it.:  11.9
      thresh= 1.064E-06 alpha_mix =  0.700 |ddv_scf|^2 =  6.257E-13

      iter #   6 total cpu time :  2509.6 secs   av.it.:  12.4
      thresh= 7.910E-08 alpha_mix =  0.700 |ddv_scf|^2 =  3.944E-15

     End of self-consistent calculation

     Convergence has been achieved 


     Representation #   7 mode #   7

     Self-consistent Calculation

      iter #   1 total cpu time :  2543.6 secs   av.it.:   8.2
      thresh= 1.000E-02 alpha_mix =  0.700 |ddv_scf|^2 =  1.120E-05

      iter #   2 total cpu time :  2582.2 secs   av.it.:  12.4
      thresh= 3.347E-04 alpha_mix =  0.700 |ddv_scf|^2 =  2.038E-06

      iter #   3 total cpu time :  2620.0 secs   av.it.:  12.1
      thresh= 1.428E-04 alpha_mix =  0.700 |ddv_scf|^2 =  1.734E-09

      iter #   4 total cpu time :  2659.3 secs   av.it.:  12.6
      thresh= 4.164E-06 alpha_mix =  0.700 |ddv_scf|^2 =  1.281E-10

      iter #   5 total cpu time :  2697.0 secs   av.it.:  12.1
      thresh= 1.132E-06 alpha_mix =  0.700 |ddv_scf|^2 =  8.934E-13

      iter #   6 total cpu time :  2734.8 secs   av.it.:  12.1
      thresh= 9.452E-08 alpha_mix =  0.700 |ddv_scf|^2 =  2.533E-14

      iter #   7 total cpu time :  2773.1 secs   av.it.:  12.3
      thresh= 1.591E-08 alpha_mix =  0.700 |ddv_scf|^2 =  3.121E-16

     End of self-consistent calculation

     Convergence has been achieved 


     Representation #   8 mode #   8

     Self-consistent Calculation

      iter #   1 total cpu time :  2800.7 secs   av.it.:   6.1
      thresh= 1.000E-02 alpha_mix =  0.700 |ddv_scf|^2 =  3.179E-07

      iter #   2 total cpu time :  2840.0 secs   av.it.:  12.7
      thresh= 5.638E-05 alpha_mix =  0.700 |ddv_scf|^2 =  3.553E-08

      iter #   3 total cpu time :  2878.7 secs   av.it.:  12.4
      thresh= 1.885E-05 alpha_mix =  0.700 |ddv_scf|^2 =  7.662E-10

      iter #   4 total cpu time :  2916.6 secs   av.it.:  12.2
      thresh= 2.768E-06 alpha_mix =  0.700 |ddv_scf|^2 =  4.453E-11

      iter #   5 total cpu time :  2954.2 secs   av.it.:  12.0
      thresh= 6.673E-07 alpha_mix =  0.700 |ddv_scf|^2 =  1.387E-13

      iter #   6 total cpu time :  2993.9 secs   av.it.:  12.8
      thresh= 3.724E-08 alpha_mix =  0.700 |ddv_scf|^2 =  6.496E-16

     End of self-consistent calculation

     Convergence has been achieved 


     Representation #   9 mode #   9

     Self-consistent Calculation

      iter #   1 total cpu time :  3020.9 secs   av.it.:   6.1
      thresh= 1.000E-02 alpha_mix =  0.700 |ddv_scf|^2 =  3.179E-07

      iter #   2 total cpu time :  3060.3 secs   av.it.:  12.7
      thresh= 5.638E-05 alpha_mix =  0.700 |ddv_scf|^2 =  3.553E-08

      iter #   3 total cpu time :  3098.8 secs   av.it.:  12.4
      thresh= 1.885E-05 alpha_mix =  0.700 |ddv_scf|^2 =  7.662E-10

      iter #   4 total cpu time :  3137.4 secs   av.it.:  12.2
      thresh= 2.768E-06 alpha_mix =  0.700 |ddv_scf|^2 =  4.453E-11

      iter #   5 total cpu time :  3175.0 secs   av.it.:  12.0
      thresh= 6.673E-07 alpha_mix =  0.700 |ddv_scf|^2 =  1.387E-13

      iter #   6 total cpu time :  3214.6 secs   av.it.:  12.8
      thresh= 3.724E-08 alpha_mix =  0.700 |ddv_scf|^2 =  6.496E-16

     End of self-consistent calculation

     Convergence has been achieved 
 
     Number of q in the star =    6
     List of q in the star:
          1   0.000000000   0.384900179   0.000000000
          2   0.333333333   0.192450090   0.000000000
          3  -0.333333333   0.192450090   0.000000000
          4  -0.333333333  -0.192450090   0.000000000
          5   0.000000000  -0.384900179   0.000000000
          6   0.333333333  -0.192450090   0.000000000

     Diagonalizing the dynamical matrix

     q = (    0.000000000   0.384900179   0.000000000 ) 

 **************************************************************************
     freq (    1) =       5.043427 [THz] =     168.230600 [cm-1]
     freq (    2) =       5.453035 [THz] =     181.893676 [cm-1]
     freq (    3) =       6.908269 [THz] =     230.435042 [cm-1]
     freq (    4) =      14.472816 [THz] =     482.761174 [cm-1]
     freq (    5) =      14.508299 [THz] =     483.944764 [cm-1]
     freq (    6) =      15.371264 [THz] =     512.730171 [cm-1]
     freq (    7) =      18.118070 [THz] =     604.353767 [cm-1]
     freq (    8) =      22.341546 [THz] =     745.233766 [cm-1]
     freq (    9) =      22.872908 [THz] =     762.958089 [cm-1]
 **************************************************************************

     Mode symmetry, C_2v (mm2)  point group:

     freq (   1-   1) =        168.2  [cm-1]   --> B_2  D_4  S_4      
     freq (   2-   2) =        181.9  [cm-1]   --> B_1  D_3  S_3      
     freq (   3-   3) =        230.4  [cm-1]   --> A_1  D_1  S_1      
     freq (   4-   4) =        482.8  [cm-1]   --> B_2  D_4  S_4      
     freq (   5-   5) =        483.9  [cm-1]   --> B_1  D_3  S_3      
     freq (   6-   6) =        512.7  [cm-1]   --> B_2  D_4  S_4      
     freq (   7-   7) =        604.4  [cm-1]   --> A_1  D_1  S_1      
     freq (   8-   8) =        745.2  [cm-1]   --> B_1  D_3  S_3      
     freq (   9-   9) =        763.0  [cm-1]   --> A_1  D_1  S_1      
 
     init_run     :      0.17s CPU      0.18s WALL (       1 calls)
     electrons    :    244.63s CPU    251.60s WALL (       1 calls)

     Called by init_run:
     wfcinit      :      0.00s CPU      0.00s WALL (       1 calls)
     potinit      :      0.01s CPU      0.02s WALL (       1 calls)
     hinit0       :      0.03s CPU      0.04s WALL (       1 calls)

     Called by electrons:
     c_bands      :    244.52s CPU    251.49s WALL (       1 calls)
     v_of_rho     :      0.03s CPU      0.03s WALL (       2 calls)

     Called by c_bands:
     init_us_2    :     19.60s CPU     20.54s WALL (  158517 calls)
     init_us_2:cp :     19.11s CPU     20.09s WALL (  158517 calls)
     cegterg      :    230.61s CPU    237.13s WALL (    4727 calls)

     Called by *egterg:
     cdiaghg      :     82.59s CPU     84.77s WALL (   73405 calls)
     h_psi        :   2162.12s CPU   2268.38s WALL ( 2462237 calls)
     g_psi        :      0.64s CPU      0.66s WALL (   70327 calls)

     Called by h_psi:
     h_psi:calbec :    139.09s CPU    145.81s WALL ( 2462237 calls)
     vloc_psi     :   1873.12s CPU   1965.36s WALL ( 2462237 calls)
     add_vuspsi   :    121.98s CPU    128.34s WALL ( 2462237 calls)

     General routines
     calbec       :    243.20s CPU    255.09s WALL ( 4917136 calls)
     fft          :      0.66s CPU      0.69s WALL (    1079 calls)
     ffts         :      1.38s CPU      1.45s WALL (   14096 calls)
     fftw         :   1979.81s CPU   2079.65s WALL (36339596 calls)
     interpolate  :      0.16s CPU      0.16s WALL (     164 calls)
 
     Parallel routines
 
     PHONON       :  51m 5.53s CPU  53m35.93s WALL

     INITIALIZATION: 
     phq_setup    :      0.04s CPU      0.04s WALL (       1 calls)
     phq_init     :      7.92s CPU      7.96s WALL (       1 calls)
 
     phq_init     :      7.92s CPU      7.96s WALL (       1 calls)
     init_vloc    :      0.04s CPU      0.04s WALL (       2 calls)
     init_us_1    :      0.01s CPU      0.03s WALL (       2 calls)
     init_us_2    :     19.60s CPU     20.54s WALL (  158517 calls)
 
     DYNAMICAL MATRIX:
     dynmat0      :      6.80s CPU      6.83s WALL (       1 calls)
     phqscf       :   2812.20s CPU   2955.37s WALL (       1 calls)
     dynmatrix    :      0.00s CPU      0.00s WALL (       1 calls)
 
     phqscf       :   2812.20s CPU   2955.37s WALL (       1 calls)
     solve_linter :   2801.23s CPU   2944.24s WALL (       9 calls)
     drhodv       :     10.97s CPU     11.13s WALL (       9 calls)
 
     dynmat0      :      6.80s CPU      6.83s WALL (       1 calls)
     dynmat_us    :      6.79s CPU      6.83s WALL (       1 calls)
     d2ionq       :      0.01s CPU      0.01s WALL (       1 calls)
 
     dynmat_us    :      6.79s CPU      6.83s WALL (       1 calls)
 
     phqscf       :   2812.20s CPU   2955.37s WALL (       1 calls)
     solve_linter :   2801.23s CPU   2944.24s WALL (       9 calls)
 
     solve_linter :   2801.23s CPU   2944.24s WALL (       9 calls)
     dvqpsi_us    :     53.07s CPU     54.88s WALL (   13851 calls)
     sth_kernel   :   2740.40s CPU   2881.46s WALL (      81 calls)
     apply_dpot_b :    148.71s CPU    157.12s WALL (  110808 calls)
     ortho        :     17.04s CPU     17.96s WALL (  124659 calls)
     cgsolve      :   2369.48s CPU   2488.52s WALL (  124659 calls)
     incdrhoscf   :    159.06s CPU    169.09s WALL (  124659 calls)
     dv_of_drho   :      1.22s CPU      1.24s WALL (      81 calls)
     mix_pot      :      0.29s CPU      0.29s WALL (      81 calls)
     psymdvscf    :      3.89s CPU      3.93s WALL (      81 calls)
 
     dvqpsi_us    :     53.07s CPU     54.88s WALL (   13851 calls)
     dvqpsi_us_on :     17.38s CPU     17.93s WALL (   13851 calls)
 
     cgsolve      :   2369.48s CPU   2488.52s WALL (  124659 calls)
     ch_psi       :   2293.51s CPU   2408.16s WALL ( 2384105 calls)
 
     ch_psi       :   2293.51s CPU   2408.16s WALL ( 2384105 calls)
     h_psi        :   2162.12s CPU   2268.38s WALL ( 2462237 calls)
     last         :    214.50s CPU    225.19s WALL ( 2384105 calls)
 
     h_psi        :   2162.12s CPU   2268.38s WALL ( 2462237 calls)
     add_vuspsi   :    121.98s CPU    128.34s WALL ( 2462237 calls)
 
     incdrhoscf   :    159.06s CPU    169.09s WALL (  124659 calls)
 
 
      General routines
     calbec       :    243.20s CPU    255.09s WALL ( 4917136 calls)
     fft          :      0.66s CPU      0.69s WALL (    1079 calls)
     ffts         :      1.38s CPU      1.45s WALL (   14096 calls)
     fftw         :   1979.81s CPU   2079.65s WALL (36339596 calls)
 
 
     PHONON       :  51m 5.53s CPU  53m35.93s WALL

 
   This run was terminated on:   1:31: 2  15Jun2022            

=------------------------------------------------------------------------------=
   JOB DONE.
=------------------------------------------------------------------------------=
