
     Program PHONON v.7.0 starts on 15Jun2022 at  0:14:13 

     This program is part of the open-source Quantum ESPRESSO suite
     for quantum simulation of materials; please cite
         "P. Giannozzi et al., J. Phys.:Condens. Matter 21 395502 (2009);
         "P. Giannozzi et al., J. Phys.:Condens. Matter 29 465901 (2017);
         "P. Giannozzi et al., J. Chem. Phys. 152 154105 (2020);
          URL http://www.quantum-espresso.org", 
     in publications or presentations arising from this work. More details at
     http://www.quantum-espresso.org/quote

     Parallel version (MPI), running on     8 processors

     MPI processes distributed on     1 nodes
     R & G space division:  proc/nbgrp/npool/nimage =       8
     4111 MiB available memory on the printing compute node when the environment starts
 
     Reading input from mob2_fonon_01.in

     Reading xml data from directory:

     ./tmp/mob2.save/

     IMPORTANT: XC functional enforced from input :
     Exchange-correlation= PBE
                           (   1   4   3   4   0   0   0)
     Any further DFT definition will be discarded
     Please, verify this is what you really want

 
     Parallelization info
     --------------------
     sticks:   dense  smooth     PW     G-vecs:    dense   smooth      PW
     Min         199      56     18                 6901     1046     192
     Max         200      57     19                 6904     1049     195
     Sum        1597     451    151                55227     8373    1545
 
     Using Slab Decomposition
 
     Reading collected, re-writing distributed wavefunctions


     Dynamical matrices for ( 3, 3, 3)  uniform grid of q-points
     (   6 q-points):
       N         xq(1)         xq(2)         xq(3) 
       1   0.000000000   0.000000000   0.000000000
       2   0.000000000   0.000000000   0.311376641
       3   0.000000000   0.384900179   0.000000000
       4   0.000000000   0.384900179   0.311376641
       5   0.333333333   0.577350269   0.000000000
       6   0.333333333   0.577350269   0.311376641

     Calculation of q =    0.0000000   0.0000000   0.0000000

     Phonon calc for qp01                                                       

     bravais-lattice index     =            4
     lattice parameter (alat)  =       5.8733  a.u.
     unit-cell volume          =     187.8355 (a.u.)^3
     number of atoms/cell      =            3
     number of atomic types    =            2
     kinetic-energy cut-off    =      48.0000  Ry
     charge density cut-off    =     672.0000  Ry
     convergence threshold     =      1.0E-14
     beta                      =       0.7000
     number of iterations used =            4
     Exchange-correlation= PBE
                           (   1   4   3   4   0   0   0)


     celldm(1)=    5.87334  celldm(2)=    0.00000  celldm(3)=    1.07051
     celldm(4)=    0.00000  celldm(5)=    0.00000  celldm(6)=    0.00000

     crystal axes: (cart. coord. in units of alat)
               a(1) = (  1.0000  0.0000  0.0000 )  
               a(2) = ( -0.5000  0.8660  0.0000 )  
               a(3) = (  0.0000  0.0000  1.0705 )  

     reciprocal axes: (cart. coord. in units 2 pi/alat)
               b(1) = (  1.0000  0.5774  0.0000 )  
               b(2) = (  0.0000  1.1547  0.0000 )  
               b(3) = (  0.0000  0.0000  0.9341 )  


     Atoms inside the unit cell: 

     Cartesian axes

     site n.  atom      mass           positions (alat units)
        1     Mo  92.9060   tau(    1) = (    0.00000    0.00000    0.00000  )
        2     B   10.8100   tau(    2) = (    0.50000    0.28868    0.53526  )
        3     B   10.8100   tau(    3) = (    0.00000    0.57735    0.53526  )

     Computing dynamical matrix for 
                    q = (   0.0000000   0.0000000   0.0000000 )
 
     25 Sym.Ops. (with q -> -q+G )


     G cutoff =  587.1906  (   6903 G-vectors)     FFT grid: ( 50, 50, 54)
     G cutoff =  167.7687  (   1049 G-vectors)  smooth grid: ( 25, 25, 27)

     number of k points=   333  Gaussian smearing, width (Ry)=  0.0150

     PseudoPot. # 1 for Xx read from file:
     /home/marcocarmonaga/Apps/qe-7.0/pseudo/Nb1.00Mo0.00.upf
     MD5 check sum: e4b562b21cfca1bf7e2ab47e57cae993
     Pseudo is Norm-conserving, Zval = 13.0
     Generated using virtual.x code
     Using radial grid of  602 points, 12 beta functions with: 
                l(1) =   0
                l(2) =   0
                l(3) =   1
                l(4) =   1
                l(5) =   2
                l(6) =   2
                l(7) =   0
                l(8) =   0
                l(9) =   1
               l(10) =   1
               l(11) =   2
               l(12) =   2

     PseudoPot. # 2 for B  read from file:
     /home/marcocarmonaga/Apps/qe-7.0/pseudo/B_ONCV_PBE-1.2.upf
     MD5 check sum: eb3cbeacc2d324d57d903df00f564d27
     Pseudo is Norm-conserving, Zval =  3.0
     Generated using ONCVPSP code by D. R. Hamann
     Using radial grid of  602 points,  4 beta functions with: 
                l(1) =   0
                l(2) =   0
                l(3) =   1
                l(4) =   1

     Mode symmetry, D_6h(6/mmm) point group:


     Atomic displacements:
     There are    6 irreducible representations

     Representation     1      1 modes -  To be done

     Representation     2      2 modes -  To be done

     Representation     3      1 modes -  To be done

     Representation     4      1 modes -  To be done

     Representation     5      2 modes -  To be done

     Representation     6      2 modes -  To be done



     Alpha used in Ewald sum =   2.8000
     PHONON       :      1.90s CPU      2.04s WALL



     Representation #   1 mode #   1

     Self-consistent Calculation
 
     Pert. #  1: Fermi energy shift (Ry) =     5.7824E-19     0.0000E+00

      iter #   1 total cpu time :     6.7 secs   av.it.:   4.8
      thresh= 1.000E-02 alpha_mix =  0.700 |ddv_scf|^2 =  4.337E-08
 
     Pert. #  1: Fermi energy shift (Ry) =     0.0000E+00     0.0000E+00

      iter #   2 total cpu time :    13.0 secs   av.it.:  11.0
      thresh= 2.082E-05 alpha_mix =  0.700 |ddv_scf|^2 =  2.061E-09
 
     Pert. #  1: Fermi energy shift (Ry) =     0.0000E+00     0.0000E+00

      iter #   3 total cpu time :    18.8 secs   av.it.:   9.5
      thresh= 4.540E-06 alpha_mix =  0.700 |ddv_scf|^2 =  9.094E-11
 
     Pert. #  1: Fermi energy shift (Ry) =     5.7824E-19     0.0000E+00

      iter #   4 total cpu time :    23.9 secs   av.it.:   8.5
      thresh= 9.536E-07 alpha_mix =  0.700 |ddv_scf|^2 =  6.915E-15

     End of self-consistent calculation

     Convergence has been achieved 


     Representation #   2 modes #   2   3

     Self-consistent Calculation
 
     Pert. #  1: Fermi energy shift (Ry) =    -8.6736E-19    -1.5306E-41
     Pert. #  2: Fermi energy shift (Ry) =    -1.1565E-18     7.6530E-41

      iter #   1 total cpu time :    33.5 secs   av.it.:   5.8
      thresh= 1.000E-02 alpha_mix =  0.700 |ddv_scf|^2 =  7.461E-08
 
     Pert. #  1: Fermi energy shift (Ry) =     8.6736E-19     1.3393E-41
     Pert. #  2: Fermi energy shift (Ry) =     7.2280E-20     1.7219E-41

      iter #   2 total cpu time :    47.6 secs   av.it.:  12.7
      thresh= 2.731E-05 alpha_mix =  0.700 |ddv_scf|^2 =  2.077E-09
 
     Pert. #  1: Fermi energy shift (Ry) =     0.0000E+00     1.3393E-41
     Pert. #  2: Fermi energy shift (Ry) =    -1.0119E-18     2.9655E-41

      iter #   3 total cpu time :    61.4 secs   av.it.:  12.6
      thresh= 4.558E-06 alpha_mix =  0.700 |ddv_scf|^2 =  7.944E-11
 
     Pert. #  1: Fermi energy shift (Ry) =     1.4456E-19     1.3393E-41
     Pert. #  2: Fermi energy shift (Ry) =     4.3368E-19     2.9655E-41

      iter #   4 total cpu time :    74.0 secs   av.it.:  11.2
      thresh= 8.913E-07 alpha_mix =  0.700 |ddv_scf|^2 =  6.593E-13
 
     Pert. #  1: Fermi energy shift (Ry) =     2.8912E-19     1.3393E-41
     Pert. #  2: Fermi energy shift (Ry) =    -1.4456E-19     2.9655E-41

      iter #   5 total cpu time :    87.5 secs   av.it.:  12.0
      thresh= 8.120E-08 alpha_mix =  0.700 |ddv_scf|^2 =  4.738E-16

     End of self-consistent calculation

     Convergence has been achieved 


     Representation #   3 mode #   4

     Self-consistent Calculation
 
     Pert. #  1: Fermi energy shift (Ry) =    -1.0771E-27     0.0000E+00

      iter #   1 total cpu time :    94.1 secs   av.it.:   8.0
      thresh= 1.000E-02 alpha_mix =  0.700 |ddv_scf|^2 =  1.737E-05
 
     Pert. #  1: Fermi energy shift (Ry) =    -2.0680E-25     0.0000E+00

      iter #   2 total cpu time :   100.9 secs   av.it.:  11.6
      thresh= 4.168E-04 alpha_mix =  0.700 |ddv_scf|^2 =  5.582E-06
 
     Pert. #  1: Fermi energy shift (Ry) =    -8.6165E-27     0.0000E+00

      iter #   3 total cpu time :   107.5 secs   av.it.:  11.2
      thresh= 2.363E-04 alpha_mix =  0.700 |ddv_scf|^2 =  1.159E-09
 
     Pert. #  1: Fermi energy shift (Ry) =     1.7233E-26     0.0000E+00

      iter #   4 total cpu time :   114.4 secs   av.it.:  11.9
      thresh= 3.404E-06 alpha_mix =  0.700 |ddv_scf|^2 =  1.497E-10
 
     Pert. #  1: Fermi energy shift (Ry) =    -1.7233E-26     0.0000E+00

      iter #   5 total cpu time :   121.2 secs   av.it.:  11.3
      thresh= 1.224E-06 alpha_mix =  0.700 |ddv_scf|^2 =  6.236E-13
 
     Pert. #  1: Fermi energy shift (Ry) =     0.0000E+00     0.0000E+00

      iter #   6 total cpu time :   128.1 secs   av.it.:  11.5
      thresh= 7.897E-08 alpha_mix =  0.700 |ddv_scf|^2 =  2.062E-15

     End of self-consistent calculation

     Convergence has been achieved 


     Representation #   4 mode #   5

     Self-consistent Calculation
 
     Pert. #  1: Fermi energy shift (Ry) =     1.1029E-24    -7.5232E-37

      iter #   1 total cpu time :   133.9 secs   av.it.:   6.2
      thresh= 1.000E-02 alpha_mix =  0.700 |ddv_scf|^2 =  1.131E-06
 
     Pert. #  1: Fermi energy shift (Ry) =    -1.6544E-24     9.7958E-40

      iter #   2 total cpu time :   141.3 secs   av.it.:  11.5
      thresh= 1.063E-04 alpha_mix =  0.700 |ddv_scf|^2 =  3.026E-07
 
     Pert. #  1: Fermi energy shift (Ry) =    -1.6544E-24     9.7958E-40

      iter #   3 total cpu time :   148.6 secs   av.it.:  11.2
      thresh= 5.501E-05 alpha_mix =  0.700 |ddv_scf|^2 =  9.455E-10
 
     Pert. #  1: Fermi energy shift (Ry) =    -5.5145E-25     0.0000E+00

      iter #   4 total cpu time :   155.9 secs   av.it.:  11.1
      thresh= 3.075E-06 alpha_mix =  0.700 |ddv_scf|^2 =  4.456E-11
 
     Pert. #  1: Fermi energy shift (Ry) =     1.6544E-24     4.8979E-40

      iter #   5 total cpu time :   163.3 secs   av.it.:  10.5
      thresh= 6.676E-07 alpha_mix =  0.700 |ddv_scf|^2 =  5.735E-15

     End of self-consistent calculation

     Convergence has been achieved 


     Representation #   5 modes #   6   7

     Self-consistent Calculation
 
     Pert. #  1: Fermi energy shift (Ry) =    -2.0680E-25    -7.8366E-39
     Pert. #  2: Fermi energy shift (Ry) =     3.4466E-25     7.8366E-39

      iter #   1 total cpu time :   174.6 secs   av.it.:   5.3
      thresh= 1.000E-02 alpha_mix =  0.700 |ddv_scf|^2 =  2.463E-08
 
     Pert. #  1: Fermi energy shift (Ry) =     1.3786E-25     4.8979E-40
     Pert. #  2: Fermi energy shift (Ry) =    -4.1359E-25    -2.9387E-39

      iter #   2 total cpu time :   191.6 secs   av.it.:  12.7
      thresh= 1.569E-05 alpha_mix =  0.700 |ddv_scf|^2 =  1.355E-09
 
     Pert. #  1: Fermi energy shift (Ry) =    -2.7573E-25    -9.7958E-40
     Pert. #  2: Fermi energy shift (Ry) =     3.4466E-25    -1.4694E-39

      iter #   3 total cpu time :   208.4 secs   av.it.:  12.5
      thresh= 3.682E-06 alpha_mix =  0.700 |ddv_scf|^2 =  1.022E-10
 
     Pert. #  1: Fermi energy shift (Ry) =    -2.7573E-25    -4.8979E-40
     Pert. #  2: Fermi energy shift (Ry) =    -2.7573E-25    -4.8979E-40

      iter #   4 total cpu time :   224.6 secs   av.it.:  12.1
      thresh= 1.011E-06 alpha_mix =  0.700 |ddv_scf|^2 =  2.286E-12
 
     Pert. #  1: Fermi energy shift (Ry) =     2.7573E-25    -4.8979E-40
     Pert. #  2: Fermi energy shift (Ry) =     1.3786E-25    -4.8979E-40

      iter #   5 total cpu time :   241.1 secs   av.it.:  12.2
      thresh= 1.512E-07 alpha_mix =  0.700 |ddv_scf|^2 =  6.026E-16

     End of self-consistent calculation

     Convergence has been achieved 


     Representation #   6 modes #   8   9

     Self-consistent Calculation
 
     Pert. #  1: Fermi energy shift (Ry) =     1.1029E-24     9.4040E-38
     Pert. #  2: Fermi energy shift (Ry) =    -5.5145E-25    -1.0971E-37

      iter #   1 total cpu time :   255.8 secs   av.it.:   7.8
      thresh= 1.000E-02 alpha_mix =  0.700 |ddv_scf|^2 =  1.728E-06
 
     Pert. #  1: Fermi energy shift (Ry) =     1.1029E-24     1.2245E-39
     Pert. #  2: Fermi energy shift (Ry) =    -6.2039E-25    -8.5713E-40

      iter #   2 total cpu time :   272.7 secs   av.it.:  12.7
      thresh= 1.314E-04 alpha_mix =  0.700 |ddv_scf|^2 =  1.575E-07
 
     Pert. #  1: Fermi energy shift (Ry) =     6.2039E-25    -1.7143E-39
     Pert. #  2: Fermi energy shift (Ry) =    -1.7233E-25     0.0000E+00

      iter #   3 total cpu time :   289.4 secs   av.it.:  12.5
      thresh= 3.968E-05 alpha_mix =  0.700 |ddv_scf|^2 =  2.590E-10
 
     Pert. #  1: Fermi energy shift (Ry) =     6.8932E-26    -1.2245E-39
     Pert. #  2: Fermi energy shift (Ry) =    -1.0340E-24     0.0000E+00

      iter #   4 total cpu time :   306.3 secs   av.it.:  12.6
      thresh= 1.609E-06 alpha_mix =  0.700 |ddv_scf|^2 =  3.607E-12
 
     Pert. #  1: Fermi energy shift (Ry) =     2.0680E-25    -1.2245E-39
     Pert. #  2: Fermi energy shift (Ry) =    -3.4466E-25     0.0000E+00

      iter #   5 total cpu time :   322.6 secs   av.it.:  12.0
      thresh= 1.899E-07 alpha_mix =  0.700 |ddv_scf|^2 =  5.985E-14
 
     Pert. #  1: Fermi energy shift (Ry) =     6.8932E-25    -1.2245E-39
     Pert. #  2: Fermi energy shift (Ry) =     1.0340E-25     0.0000E+00

      iter #   6 total cpu time :   339.5 secs   av.it.:  12.6
      thresh= 2.446E-08 alpha_mix =  0.700 |ddv_scf|^2 =  1.166E-16

     End of self-consistent calculation

     Convergence has been achieved 
 
     Number of q in the star =    1
     List of q in the star:
          1   0.000000000   0.000000000   0.000000000

     Diagonalizing the dynamical matrix

     q = (    0.000000000   0.000000000   0.000000000 ) 

 **************************************************************************
     freq (    1) =       0.485806 [THz] =      16.204756 [cm-1]
     freq (    2) =       0.485806 [THz] =      16.204756 [cm-1]
     freq (    3) =       0.552319 [THz] =      18.423379 [cm-1]
     freq (    4) =      12.415367 [THz] =     414.132080 [cm-1]
     freq (    5) =      12.415367 [THz] =     414.132080 [cm-1]
     freq (    6) =      14.172203 [THz] =     472.733820 [cm-1]
     freq (    7) =      16.336682 [THz] =     544.933057 [cm-1]
     freq (    8) =      23.376956 [THz] =     779.771320 [cm-1]
     freq (    9) =      23.376956 [THz] =     779.771320 [cm-1]
 **************************************************************************

     Mode symmetry, D_6h(6/mmm) point group:

     freq (   1-   2) =         16.2  [cm-1]   --> E_1u            I  
     freq (   3-   3) =         18.4  [cm-1]   --> A_2u            I  
     freq (   4-   5) =        414.1  [cm-1]   --> E_1u            I  
     freq (   6-   6) =        472.7  [cm-1]   --> A_2u            I  
     freq (   7-   7) =        544.9  [cm-1]   --> B_1g               
     freq (   8-   9) =        779.8  [cm-1]   --> E_2g            R  
 
     PHONON       :   5m24.08s CPU   5m39.93s WALL

     INITIALIZATION: 
     phq_setup    :      0.02s CPU      0.03s WALL (       1 calls)
     phq_init     :      1.26s CPU      1.28s WALL (       1 calls)
 
     phq_init     :      1.26s CPU      1.28s WALL (       1 calls)
     init_vloc    :      0.01s CPU      0.01s WALL (       1 calls)
     init_us_1    :      0.01s CPU      0.01s WALL (       1 calls)
     init_us_2    :      1.86s CPU      1.93s WALL (   16983 calls)
 
     DYNAMICAL MATRIX:
     dynmat0      :      1.09s CPU      1.09s WALL (       1 calls)
     phqscf       :    322.18s CPU    337.84s WALL (       1 calls)
     dynmatrix    :      0.00s CPU      0.00s WALL (       1 calls)
 
     phqscf       :    322.18s CPU    337.84s WALL (       1 calls)
     solve_linter :    320.31s CPU    335.95s WALL (       6 calls)
     drhodv       :      1.87s CPU      1.89s WALL (       6 calls)
 
     dynmat0      :      1.09s CPU      1.09s WALL (       1 calls)
     dynmat_us    :      1.08s CPU      1.09s WALL (       1 calls)
     d2ionq       :      0.00s CPU      0.00s WALL (       1 calls)
 
     dynmat_us    :      1.08s CPU      1.09s WALL (       1 calls)
 
     phqscf       :    322.18s CPU    337.84s WALL (       1 calls)
     solve_linter :    320.31s CPU    335.95s WALL (       6 calls)
 
     solve_linter :    320.31s CPU    335.95s WALL (       6 calls)
     dvqpsi_us    :     10.62s CPU     11.09s WALL (    2997 calls)
     sth_kernel   :    297.43s CPU    312.42s WALL (      31 calls)
     apply_dpot_b :     15.19s CPU     16.09s WALL (   12654 calls)
     ortho        :      1.83s CPU      1.93s WALL (   15651 calls)
     cgsolve      :    258.62s CPU    271.37s WALL (   15651 calls)
     incdrhoscf   :     18.14s CPU     19.18s WALL (   15651 calls)
     dv_of_drho   :      0.76s CPU      0.80s WALL (      47 calls)
     mix_pot      :      0.14s CPU      0.14s WALL (      31 calls)
     ef_shift     :      0.05s CPU      0.06s WALL (      31 calls)
     ef_shift_wfc :      0.13s CPU      0.13s WALL (       6 calls)
     localdos     :      2.64s CPU      2.71s WALL (       6 calls)
     psymdvscf    :      8.15s CPU      8.20s WALL (      31 calls)
 
     dvqpsi_us    :     10.62s CPU     11.09s WALL (    2997 calls)
     dvqpsi_us_on :      3.66s CPU      3.82s WALL (    2997 calls)
 
     cgsolve      :    258.62s CPU    271.37s WALL (   15651 calls)
     ch_psi       :    250.22s CPU    262.50s WALL (  273965 calls)
 
     ch_psi       :    250.22s CPU    262.50s WALL (  273965 calls)
     h_psi        :    222.47s CPU    233.46s WALL (  273965 calls)
     last         :     23.63s CPU     24.78s WALL (  273965 calls)
 
     h_psi        :    222.47s CPU    233.46s WALL (  273965 calls)
     add_vuspsi   :     12.27s CPU     12.93s WALL (  273965 calls)
 
     incdrhoscf   :     18.14s CPU     19.18s WALL (   15651 calls)
 
 
      General routines
     calbec       :     26.40s CPU     27.64s WALL (  565246 calls)
     fft          :      0.48s CPU      0.52s WALL (     726 calls)
     ffts         :      1.64s CPU      1.69s WALL (   23024 calls)
     fftw         :    207.81s CPU    218.50s WALL ( 4213648 calls)
 
 
     PHONON       :   5m24.08s CPU   5m39.94s WALL

 
   This run was terminated on:   0:19:53  15Jun2022            

=------------------------------------------------------------------------------=
   JOB DONE.
=------------------------------------------------------------------------------=
