
     Program PHONON v.7.0 starts on 15Jun2022 at  1:31: 3 

     This program is part of the open-source Quantum ESPRESSO suite
     for quantum simulation of materials; please cite
         "P. Giannozzi et al., J. Phys.:Condens. Matter 21 395502 (2009);
         "P. Giannozzi et al., J. Phys.:Condens. Matter 29 465901 (2017);
         "P. Giannozzi et al., J. Chem. Phys. 152 154105 (2020);
          URL http://www.quantum-espresso.org", 
     in publications or presentations arising from this work. More details at
     http://www.quantum-espresso.org/quote

     Parallel version (MPI), running on     8 processors

     MPI processes distributed on     1 nodes
     R & G space division:  proc/nbgrp/npool/nimage =       8
     4046 MiB available memory on the printing compute node when the environment starts
 
     Reading input from mob2_fonon_04.in

     Reading xml data from directory:

     ./tmp/mob2.save/

     IMPORTANT: XC functional enforced from input :
     Exchange-correlation= PBE
                           (   1   4   3   4   0   0   0)
     Any further DFT definition will be discarded
     Please, verify this is what you really want

 
     Parallelization info
     --------------------
     sticks:   dense  smooth     PW     G-vecs:    dense   smooth      PW
     Min         199      56     18                 6901     1046     192
     Max         200      57     19                 6904     1049     195
     Sum        1597     451    151                55227     8373    1545
 
     Using Slab Decomposition
 
     Reading collected, re-writing distributed wavefunctions


     Dynamical matrices for ( 3, 3, 3)  uniform grid of q-points
     (   6 q-points):
       N         xq(1)         xq(2)         xq(3) 
       1   0.000000000   0.000000000   0.000000000
       2   0.000000000   0.000000000   0.311376641
       3   0.000000000   0.384900179   0.000000000
       4   0.000000000   0.384900179   0.311376641
       5   0.333333333   0.577350269   0.000000000
       6   0.333333333   0.577350269   0.311376641

     Calculation of q =    0.0000000   0.3849002   0.3113766

     Subspace diagonalization in iterative solution of the eigenvalue problem:
     a serial algorithm will be used

 
     Parallelization info
     --------------------
     sticks:   dense  smooth     PW     G-vecs:    dense   smooth      PW
     Min         199      56     20                 6901     1046     228
     Max         200      57     21                 6904     1049     231
     Sum        1597     451    163                55227     8373    1835
 
     Using Slab Decomposition
 

     Title: 
     Phonon calc for qp04                                                       


     bravais-lattice index     =            4
     lattice parameter (alat)  =       5.8733  a.u.
     unit-cell volume          =     187.8355 (a.u.)^3
     number of atoms/cell      =            3
     number of atomic types    =            2
     number of electrons       =        19.00
     number of Kohn-Sham states=           20
     kinetic-energy cutoff     =      48.0000  Ry
     charge density cutoff     =     672.0000  Ry
     Exchange-correlation= PBE
                           (   1   4   3   4   0   0   0)

     celldm(1)=   5.873335  celldm(2)=   0.000000  celldm(3)=   1.070515
     celldm(4)=   0.000000  celldm(5)=   0.000000  celldm(6)=   0.000000

     crystal axes: (cart. coord. in units of alat)
               a(1) = (   1.000000   0.000000   0.000000 )  
               a(2) = (  -0.500000   0.866025   0.000000 )  
               a(3) = (   0.000000   0.000000   1.070515 )  

     reciprocal axes: (cart. coord. in units 2 pi/alat)
               b(1) = (  1.000000  0.577350  0.000000 )  
               b(2) = (  0.000000  1.154701  0.000000 )  
               b(3) = (  0.000000  0.000000  0.934130 )  


     PseudoPot. # 1 for Xx read from file:
     /home/marcocarmonaga/Apps/qe-7.0/pseudo/Nb1.00Mo0.00.upf
     MD5 check sum: e4b562b21cfca1bf7e2ab47e57cae993
     Pseudo is Norm-conserving, Zval = 13.0
     Generated using virtual.x code
     Using radial grid of  602 points, 12 beta functions with: 
                l(1) =   0
                l(2) =   0
                l(3) =   1
                l(4) =   1
                l(5) =   2
                l(6) =   2
                l(7) =   0
                l(8) =   0
                l(9) =   1
               l(10) =   1
               l(11) =   2
               l(12) =   2

     PseudoPot. # 2 for B  read from file:
     /home/marcocarmonaga/Apps/qe-7.0/pseudo/B_ONCV_PBE-1.2.upf
     MD5 check sum: eb3cbeacc2d324d57d903df00f564d27
     Pseudo is Norm-conserving, Zval =  3.0
     Generated using ONCVPSP code by D. R. Hamann
     Using radial grid of  602 points,  4 beta functions with: 
                l(1) =   0
                l(2) =   0
                l(3) =   1
                l(4) =   1

     atomic species   valence    mass     pseudopotential
        Mo            13.00    92.90600     Xx( 1.00)
        B              3.00    10.81000     B ( 1.00)

     24 Sym. Ops., with inversion, found



   Cartesian axes

     site n.     atom                  positions (alat units)
         1           Mo  tau(   1) = (   0.0000000   0.0000000   0.0000000  )
         2           B   tau(   2) = (   0.5000000   0.2886751   0.5352574  )
         3           B   tau(   3) = (   0.0000000   0.5773503   0.5352574  )

     number of k points=  6156  Gaussian smearing, width (Ry)=  0.0150

     Number of k-points >= 100: set verbosity='high' to print them.

     Dense  grid:    55227 G-vectors     FFT dimensions: (  50,  50,  54)

     Smooth grid:     8373 G-vectors     FFT dimensions: (  25,  25,  27)

     Estimated max dynamical RAM per process >     264.99 MB

     Estimated total dynamical RAM >       2.07 GB

     The potential is recalculated from file :
     ./tmp/_ph0/mob2.save/charge-density

     Starting wfcs are    0 atomic +   20 random wfcs

     Band Structure Calculation
     Davidson diagonalization with overlap

     ethr =  5.26E-11,  avg # of iterations = 22.9

     total cpu time spent up to now is      501.3 secs

     End of band structure calculation

     Number of k-points >= 100: set verbosity='high' to print the bands.

     the Fermi energy is    18.4715 ev

     Phonon calc for qp04                                                       

     bravais-lattice index     =            4
     lattice parameter (alat)  =       5.8733  a.u.
     unit-cell volume          =     187.8355 (a.u.)^3
     number of atoms/cell      =            3
     number of atomic types    =            2
     kinetic-energy cut-off    =      48.0000  Ry
     charge density cut-off    =     672.0000  Ry
     convergence threshold     =      1.0E-14
     beta                      =       0.7000
     number of iterations used =            4
     Exchange-correlation= PBE
                           (   1   4   3   4   0   0   0)


     celldm(1)=    5.87334  celldm(2)=    0.00000  celldm(3)=    1.07051
     celldm(4)=    0.00000  celldm(5)=    0.00000  celldm(6)=    0.00000

     crystal axes: (cart. coord. in units of alat)
               a(1) = (  1.0000  0.0000  0.0000 )  
               a(2) = ( -0.5000  0.8660  0.0000 )  
               a(3) = (  0.0000  0.0000  1.0705 )  

     reciprocal axes: (cart. coord. in units 2 pi/alat)
               b(1) = (  1.0000  0.5774  0.0000 )  
               b(2) = (  0.0000  1.1547  0.0000 )  
               b(3) = (  0.0000  0.0000  0.9341 )  


     Atoms inside the unit cell: 

     Cartesian axes

     site n.  atom      mass           positions (alat units)
        1     Mo  92.9060   tau(    1) = (    0.00000    0.00000    0.00000  )
        2     B   10.8100   tau(    2) = (    0.50000    0.28868    0.53526  )
        3     B   10.8100   tau(    3) = (    0.00000    0.57735    0.53526  )

     Computing dynamical matrix for 
                    q = (   0.0000000   0.3849002   0.3113766 )
 
      2 Sym.Ops. (no q -> -q+G )


     G cutoff =  587.1906  (   6903 G-vectors)     FFT grid: ( 50, 50, 54)
     G cutoff =  167.7687  (   1049 G-vectors)  smooth grid: ( 25, 25, 27)

     number of k points=  6156  Gaussian smearing, width (Ry)=  0.0150

     PseudoPot. # 1 for Xx read from file:
     /home/marcocarmonaga/Apps/qe-7.0/pseudo/Nb1.00Mo0.00.upf
     MD5 check sum: e4b562b21cfca1bf7e2ab47e57cae993
     Pseudo is Norm-conserving, Zval = 13.0
     Generated using virtual.x code
     Using radial grid of  602 points, 12 beta functions with: 
                l(1) =   0
                l(2) =   0
                l(3) =   1
                l(4) =   1
                l(5) =   2
                l(6) =   2
                l(7) =   0
                l(8) =   0
                l(9) =   1
               l(10) =   1
               l(11) =   2
               l(12) =   2

     PseudoPot. # 2 for B  read from file:
     /home/marcocarmonaga/Apps/qe-7.0/pseudo/B_ONCV_PBE-1.2.upf
     MD5 check sum: eb3cbeacc2d324d57d903df00f564d27
     Pseudo is Norm-conserving, Zval =  3.0
     Generated using ONCVPSP code by D. R. Hamann
     Using radial grid of  602 points,  4 beta functions with: 
                l(1) =   0
                l(2) =   0
                l(3) =   1
                l(4) =   1

     Mode symmetry, C_s (m)     point group:


     Atomic displacements:
     There are    9 irreducible representations

     Representation     1      1 modes -  To be done

     Representation     2      1 modes -  To be done

     Representation     3      1 modes -  To be done

     Representation     4      1 modes -  To be done

     Representation     5      1 modes -  To be done

     Representation     6      1 modes -  To be done

     Representation     7      1 modes -  To be done

     Representation     8      1 modes -  To be done

     Representation     9      1 modes -  To be done



     Alpha used in Ewald sum =   2.8000
     PHONON       :   8m25.37s CPU   8m38.40s WALL



     Representation #   1 mode #   1

     Self-consistent Calculation

      iter #   1 total cpu time :   580.9 secs   av.it.:   7.1
      thresh= 1.000E-02 alpha_mix =  0.700 |ddv_scf|^2 =  1.699E-05

      iter #   2 total cpu time :   663.3 secs   av.it.:  12.9
      thresh= 4.121E-04 alpha_mix =  0.700 |ddv_scf|^2 =  3.004E-04

      iter #   3 total cpu time :   731.3 secs   av.it.:  10.5
      thresh= 1.733E-03 alpha_mix =  0.700 |ddv_scf|^2 =  4.570E-06

      iter #   4 total cpu time :   804.4 secs   av.it.:  11.6
      thresh= 2.138E-04 alpha_mix =  0.700 |ddv_scf|^2 =  1.074E-07

      iter #   5 total cpu time :   880.8 secs   av.it.:  12.1
      thresh= 3.277E-05 alpha_mix =  0.700 |ddv_scf|^2 =  4.957E-09

      iter #   6 total cpu time :   956.8 secs   av.it.:  12.1
      thresh= 7.041E-06 alpha_mix =  0.700 |ddv_scf|^2 =  8.073E-11

      iter #   7 total cpu time :  1036.0 secs   av.it.:  12.8
      thresh= 8.985E-07 alpha_mix =  0.700 |ddv_scf|^2 =  1.312E-11

      iter #   8 total cpu time :  1115.2 secs   av.it.:  12.7
      thresh= 3.622E-07 alpha_mix =  0.700 |ddv_scf|^2 =  1.232E-11

      iter #   9 total cpu time :  1190.2 secs   av.it.:  11.8
      thresh= 3.511E-07 alpha_mix =  0.700 |ddv_scf|^2 =  2.044E-11

      iter #  10 total cpu time :  1262.8 secs   av.it.:  11.5
      thresh= 4.521E-07 alpha_mix =  0.700 |ddv_scf|^2 =  5.895E-12

      iter #  11 total cpu time :  1335.7 secs   av.it.:  11.5
      thresh= 2.428E-07 alpha_mix =  0.700 |ddv_scf|^2 =  6.656E-13

      iter #  12 total cpu time :  1410.8 secs   av.it.:  11.9
      thresh= 8.159E-08 alpha_mix =  0.700 |ddv_scf|^2 =  5.839E-13

      iter #  13 total cpu time :  1481.6 secs   av.it.:  10.8
      thresh= 7.641E-08 alpha_mix =  0.700 |ddv_scf|^2 =  5.882E-14

      iter #  14 total cpu time :  1555.3 secs   av.it.:  11.7
      thresh= 2.425E-08 alpha_mix =  0.700 |ddv_scf|^2 =  3.455E-15

     End of self-consistent calculation

     Convergence has been achieved 


     Representation #   2 mode #   2

     Self-consistent Calculation

      iter #   1 total cpu time :  1630.5 secs   av.it.:   9.0
      thresh= 1.000E-02 alpha_mix =  0.700 |ddv_scf|^2 =  2.528E-04

      iter #   2 total cpu time :  1710.3 secs   av.it.:  12.8
      thresh= 1.590E-03 alpha_mix =  0.700 |ddv_scf|^2 =  3.823E-03

      iter #   3 total cpu time :  1778.9 secs   av.it.:  10.5
      thresh= 6.183E-03 alpha_mix =  0.700 |ddv_scf|^2 =  1.143E-04

      iter #   4 total cpu time :  1850.6 secs   av.it.:  11.3
      thresh= 1.069E-03 alpha_mix =  0.700 |ddv_scf|^2 =  1.918E-06

      iter #   5 total cpu time :  1925.7 secs   av.it.:  11.9
      thresh= 1.385E-04 alpha_mix =  0.700 |ddv_scf|^2 =  5.489E-08

      iter #   6 total cpu time :  2001.4 secs   av.it.:  12.1
      thresh= 2.343E-05 alpha_mix =  0.700 |ddv_scf|^2 =  1.468E-09

      iter #   7 total cpu time :  2078.2 secs   av.it.:  12.3
      thresh= 3.831E-06 alpha_mix =  0.700 |ddv_scf|^2 =  2.112E-11

      iter #   8 total cpu time :  2163.4 secs   av.it.:  12.9
      thresh= 4.596E-07 alpha_mix =  0.700 |ddv_scf|^2 =  3.122E-11

      iter #   9 total cpu time :  2235.8 secs   av.it.:  11.3
      thresh= 5.588E-07 alpha_mix =  0.700 |ddv_scf|^2 =  2.069E-11

      iter #  10 total cpu time :  2307.9 secs   av.it.:  11.4
      thresh= 4.549E-07 alpha_mix =  0.700 |ddv_scf|^2 =  5.748E-12

      iter #  11 total cpu time :  2380.1 secs   av.it.:  11.2
      thresh= 2.398E-07 alpha_mix =  0.700 |ddv_scf|^2 =  1.123E-12

      iter #  12 total cpu time :  2455.8 secs   av.it.:  12.0
      thresh= 1.060E-07 alpha_mix =  0.700 |ddv_scf|^2 =  3.589E-13

      iter #  13 total cpu time :  2527.7 secs   av.it.:  11.4
      thresh= 5.991E-08 alpha_mix =  0.700 |ddv_scf|^2 =  6.993E-15

     End of self-consistent calculation

     Convergence has been achieved 


     Representation #   3 mode #   3

     Self-consistent Calculation

      iter #   1 total cpu time :  2586.5 secs   av.it.:   6.9
      thresh= 1.000E-02 alpha_mix =  0.700 |ddv_scf|^2 =  1.890E-05

      iter #   2 total cpu time :  2666.8 secs   av.it.:  12.9
      thresh= 4.348E-04 alpha_mix =  0.700 |ddv_scf|^2 =  4.211E-04

      iter #   3 total cpu time :  2734.5 secs   av.it.:  10.4
      thresh= 2.052E-03 alpha_mix =  0.700 |ddv_scf|^2 =  9.624E-07

      iter #   4 total cpu time :  2808.6 secs   av.it.:  11.8
      thresh= 9.810E-05 alpha_mix =  0.700 |ddv_scf|^2 =  2.226E-08

      iter #   5 total cpu time :  2886.0 secs   av.it.:  12.3
      thresh= 1.492E-05 alpha_mix =  0.700 |ddv_scf|^2 =  9.580E-09

      iter #   6 total cpu time :  2960.6 secs   av.it.:  11.8
      thresh= 9.788E-06 alpha_mix =  0.700 |ddv_scf|^2 =  2.170E-10

      iter #   7 total cpu time :  3038.6 secs   av.it.:  12.4
      thresh= 1.473E-06 alpha_mix =  0.700 |ddv_scf|^2 =  3.447E-11

      iter #   8 total cpu time :  3115.2 secs   av.it.:  12.3
      thresh= 5.871E-07 alpha_mix =  0.700 |ddv_scf|^2 =  6.950E-12

      iter #   9 total cpu time :  3194.7 secs   av.it.:  12.8
      thresh= 2.636E-07 alpha_mix =  0.700 |ddv_scf|^2 =  3.374E-11

      iter #  10 total cpu time :  3265.7 secs   av.it.:  11.0
      thresh= 5.809E-07 alpha_mix =  0.700 |ddv_scf|^2 =  5.264E-12

      iter #  11 total cpu time :  3337.7 secs   av.it.:  11.3
      thresh= 2.294E-07 alpha_mix =  0.700 |ddv_scf|^2 =  2.222E-12

      iter #  12 total cpu time :  3410.6 secs   av.it.:  11.6
      thresh= 1.491E-07 alpha_mix =  0.700 |ddv_scf|^2 =  8.999E-14

      iter #  13 total cpu time :  3487.9 secs   av.it.:  12.4
      thresh= 3.000E-08 alpha_mix =  0.700 |ddv_scf|^2 =  1.513E-14

      iter #  14 total cpu time :  3563.9 secs   av.it.:  12.1
      thresh= 1.230E-08 alpha_mix =  0.700 |ddv_scf|^2 =  1.152E-15

     End of self-consistent calculation

     Convergence has been achieved 


     Representation #   4 mode #   4

     Self-consistent Calculation

      iter #   1 total cpu time :  3623.0 secs   av.it.:   6.9
      thresh= 1.000E-02 alpha_mix =  0.700 |ddv_scf|^2 =  2.031E-05

      iter #   2 total cpu time :  3703.3 secs   av.it.:  12.9
      thresh= 4.507E-04 alpha_mix =  0.700 |ddv_scf|^2 =  4.579E-04

      iter #   3 total cpu time :  3770.7 secs   av.it.:  10.4
      thresh= 2.140E-03 alpha_mix =  0.700 |ddv_scf|^2 =  8.601E-07

      iter #   4 total cpu time :  3844.8 secs   av.it.:  11.8
      thresh= 9.274E-05 alpha_mix =  0.700 |ddv_scf|^2 =  2.055E-08

      iter #   5 total cpu time :  3922.8 secs   av.it.:  12.3
      thresh= 1.434E-05 alpha_mix =  0.700 |ddv_scf|^2 =  9.097E-09

      iter #   6 total cpu time :  3997.4 secs   av.it.:  11.8
      thresh= 9.538E-06 alpha_mix =  0.700 |ddv_scf|^2 =  2.040E-10

      iter #   7 total cpu time :  4074.4 secs   av.it.:  12.3
      thresh= 1.428E-06 alpha_mix =  0.700 |ddv_scf|^2 =  3.338E-11

      iter #   8 total cpu time :  4150.9 secs   av.it.:  12.2
      thresh= 5.777E-07 alpha_mix =  0.700 |ddv_scf|^2 =  6.227E-12

      iter #   9 total cpu time :  4231.6 secs   av.it.:  12.9
      thresh= 2.495E-07 alpha_mix =  0.700 |ddv_scf|^2 =  2.739E-11

      iter #  10 total cpu time :  4302.5 secs   av.it.:  11.0
      thresh= 5.234E-07 alpha_mix =  0.700 |ddv_scf|^2 =  6.473E-12

      iter #  11 total cpu time :  4374.2 secs   av.it.:  11.2
      thresh= 2.544E-07 alpha_mix =  0.700 |ddv_scf|^2 =  3.177E-12

      iter #  12 total cpu time :  4446.7 secs   av.it.:  11.4
      thresh= 1.782E-07 alpha_mix =  0.700 |ddv_scf|^2 =  1.745E-13

      iter #  13 total cpu time :  4522.4 secs   av.it.:  12.0
      thresh= 4.177E-08 alpha_mix =  0.700 |ddv_scf|^2 =  1.715E-14

      iter #  14 total cpu time :  4597.5 secs   av.it.:  11.9
      thresh= 1.310E-08 alpha_mix =  0.700 |ddv_scf|^2 =  1.429E-15

     End of self-consistent calculation

     Convergence has been achieved 


     Representation #   5 mode #   5

     Self-consistent Calculation

      iter #   1 total cpu time :  4671.0 secs   av.it.:   9.2
      thresh= 1.000E-02 alpha_mix =  0.700 |ddv_scf|^2 =  3.538E-04

      iter #   2 total cpu time :  4751.1 secs   av.it.:  12.9
      thresh= 1.881E-03 alpha_mix =  0.700 |ddv_scf|^2 =  6.554E-03

      iter #   3 total cpu time :  4818.9 secs   av.it.:  10.5
      thresh= 8.096E-03 alpha_mix =  0.700 |ddv_scf|^2 =  6.878E-05

      iter #   4 total cpu time :  4892.1 secs   av.it.:  11.6
      thresh= 8.293E-04 alpha_mix =  0.700 |ddv_scf|^2 =  2.653E-06

      iter #   5 total cpu time :  4966.0 secs   av.it.:  11.7
      thresh= 1.629E-04 alpha_mix =  0.700 |ddv_scf|^2 =  5.058E-08

      iter #   6 total cpu time :  5041.0 secs   av.it.:  11.9
      thresh= 2.249E-05 alpha_mix =  0.700 |ddv_scf|^2 =  4.007E-09

      iter #   7 total cpu time :  5116.8 secs   av.it.:  12.0
      thresh= 6.330E-06 alpha_mix =  0.700 |ddv_scf|^2 =  1.294E-10

      iter #   8 total cpu time :  5191.5 secs   av.it.:  11.9
      thresh= 1.138E-06 alpha_mix =  0.700 |ddv_scf|^2 =  9.626E-12

      iter #   9 total cpu time :  5268.8 secs   av.it.:  12.4
      thresh= 3.103E-07 alpha_mix =  0.700 |ddv_scf|^2 =  9.592E-12

      iter #  10 total cpu time :  5356.9 secs   av.it.:  11.7
      thresh= 3.097E-07 alpha_mix =  0.700 |ddv_scf|^2 =  8.680E-12

      iter #  11 total cpu time :  5431.2 secs   av.it.:  11.4
      thresh= 2.946E-07 alpha_mix =  0.700 |ddv_scf|^2 =  2.844E-12

      iter #  12 total cpu time :  5504.2 secs   av.it.:  11.3
      thresh= 1.686E-07 alpha_mix =  0.700 |ddv_scf|^2 =  1.055E-13

      iter #  13 total cpu time :  5583.5 secs   av.it.:  12.8
      thresh= 3.248E-08 alpha_mix =  0.700 |ddv_scf|^2 =  1.971E-13

      iter #  14 total cpu time :  5654.8 secs   av.it.:  11.2
      thresh= 4.440E-08 alpha_mix =  0.700 |ddv_scf|^2 =  2.614E-15

     End of self-consistent calculation

     Convergence has been achieved 


     Representation #   6 mode #   6

     Self-consistent Calculation

      iter #   1 total cpu time :  5714.6 secs   av.it.:   7.0
      thresh= 1.000E-02 alpha_mix =  0.700 |ddv_scf|^2 =  1.839E-05

      iter #   2 total cpu time :  5795.0 secs   av.it.:  12.9
      thresh= 4.288E-04 alpha_mix =  0.700 |ddv_scf|^2 =  3.372E-04

      iter #   3 total cpu time :  5862.7 secs   av.it.:  10.5
      thresh= 1.836E-03 alpha_mix =  0.700 |ddv_scf|^2 =  4.360E-06

      iter #   4 total cpu time :  5936.0 secs   av.it.:  11.6
      thresh= 2.088E-04 alpha_mix =  0.700 |ddv_scf|^2 =  9.069E-08

      iter #   5 total cpu time :  6012.4 secs   av.it.:  12.2
      thresh= 3.011E-05 alpha_mix =  0.700 |ddv_scf|^2 =  5.645E-09

      iter #   6 total cpu time :  6088.9 secs   av.it.:  12.0
      thresh= 7.513E-06 alpha_mix =  0.700 |ddv_scf|^2 =  1.678E-10

      iter #   7 total cpu time :  6166.7 secs   av.it.:  12.5
      thresh= 1.295E-06 alpha_mix =  0.700 |ddv_scf|^2 =  2.154E-11

      iter #   8 total cpu time :  6244.8 secs   av.it.:  12.6
      thresh= 4.642E-07 alpha_mix =  0.700 |ddv_scf|^2 =  1.551E-11

      iter #   9 total cpu time :  6319.8 secs   av.it.:  11.9
      thresh= 3.938E-07 alpha_mix =  0.700 |ddv_scf|^2 =  2.094E-11

      iter #  10 total cpu time :  6393.2 secs   av.it.:  11.6
      thresh= 4.576E-07 alpha_mix =  0.700 |ddv_scf|^2 =  8.903E-12

      iter #  11 total cpu time :  6466.6 secs   av.it.:  11.5
      thresh= 2.984E-07 alpha_mix =  0.700 |ddv_scf|^2 =  3.987E-13

      iter #  12 total cpu time :  6544.3 secs   av.it.:  12.5
      thresh= 6.314E-08 alpha_mix =  0.700 |ddv_scf|^2 =  4.338E-13

      iter #  13 total cpu time :  6614.8 secs   av.it.:  11.0
      thresh= 6.586E-08 alpha_mix =  0.700 |ddv_scf|^2 =  9.575E-14

      iter #  14 total cpu time :  6687.7 secs   av.it.:  11.5
      thresh= 3.094E-08 alpha_mix =  0.700 |ddv_scf|^2 =  4.746E-15

     End of self-consistent calculation

     Convergence has been achieved 


     Representation #   7 mode #   7

     Self-consistent Calculation

      iter #   1 total cpu time :  6742.8 secs   av.it.:   6.2
      thresh= 1.000E-02 alpha_mix =  0.700 |ddv_scf|^2 =  3.006E-07

      iter #   2 total cpu time :  6821.0 secs   av.it.:  12.5
      thresh= 5.482E-05 alpha_mix =  0.700 |ddv_scf|^2 =  2.303E-08

      iter #   3 total cpu time :  6898.8 secs   av.it.:  12.5
      thresh= 1.518E-05 alpha_mix =  0.700 |ddv_scf|^2 =  5.421E-10

      iter #   4 total cpu time :  6974.4 secs   av.it.:  12.2
      thresh= 2.328E-06 alpha_mix =  0.700 |ddv_scf|^2 =  3.569E-11

      iter #   5 total cpu time :  7050.8 secs   av.it.:  12.2
      thresh= 5.974E-07 alpha_mix =  0.700 |ddv_scf|^2 =  1.094E-13

      iter #   6 total cpu time :  7130.9 secs   av.it.:  12.9
      thresh= 3.308E-08 alpha_mix =  0.700 |ddv_scf|^2 =  5.746E-16

     End of self-consistent calculation

     Convergence has been achieved 


     Representation #   8 mode #   8

     Self-consistent Calculation

      iter #   1 total cpu time :  7185.5 secs   av.it.:   6.2
      thresh= 1.000E-02 alpha_mix =  0.700 |ddv_scf|^2 =  3.006E-07

      iter #   2 total cpu time :  7263.5 secs   av.it.:  12.5
      thresh= 5.482E-05 alpha_mix =  0.700 |ddv_scf|^2 =  2.303E-08

      iter #   3 total cpu time :  7341.3 secs   av.it.:  12.5
      thresh= 1.518E-05 alpha_mix =  0.700 |ddv_scf|^2 =  5.421E-10

      iter #   4 total cpu time :  7417.6 secs   av.it.:  12.2
      thresh= 2.328E-06 alpha_mix =  0.700 |ddv_scf|^2 =  3.569E-11

      iter #   5 total cpu time :  7493.5 secs   av.it.:  12.2
      thresh= 5.974E-07 alpha_mix =  0.700 |ddv_scf|^2 =  1.094E-13

      iter #   6 total cpu time :  7573.4 secs   av.it.:  12.9
      thresh= 3.308E-08 alpha_mix =  0.700 |ddv_scf|^2 =  5.746E-16

     End of self-consistent calculation

     Convergence has been achieved 


     Representation #   9 mode #   9

     Self-consistent Calculation

      iter #   1 total cpu time :  7641.5 secs   av.it.:   8.2
      thresh= 1.000E-02 alpha_mix =  0.700 |ddv_scf|^2 =  8.809E-06

      iter #   2 total cpu time :  7719.6 secs   av.it.:  12.5
      thresh= 2.968E-04 alpha_mix =  0.700 |ddv_scf|^2 =  1.105E-06

      iter #   3 total cpu time :  7796.0 secs   av.it.:  12.3
      thresh= 1.051E-04 alpha_mix =  0.700 |ddv_scf|^2 =  1.572E-09

      iter #   4 total cpu time :  7874.0 secs   av.it.:  12.6
      thresh= 3.965E-06 alpha_mix =  0.700 |ddv_scf|^2 =  1.090E-10

      iter #   5 total cpu time :  7950.1 secs   av.it.:  12.3
      thresh= 1.044E-06 alpha_mix =  0.700 |ddv_scf|^2 =  6.090E-13

      iter #   6 total cpu time :  8027.7 secs   av.it.:  12.4
      thresh= 7.804E-08 alpha_mix =  0.700 |ddv_scf|^2 =  1.529E-14

      iter #   7 total cpu time :  8105.7 secs   av.it.:  12.5
      thresh= 1.236E-08 alpha_mix =  0.700 |ddv_scf|^2 =  2.060E-16

     End of self-consistent calculation

     Convergence has been achieved 
 
     Number of q in the star =   12
     List of q in the star:
          1   0.000000000   0.384900179   0.311376641
          2   0.333333333  -0.192450090   0.311376641
          3   0.000000000  -0.384900179   0.311376641
          4   0.333333333   0.192450090   0.311376641
          5  -0.333333333   0.192450090   0.311376641
          6   0.000000000   0.384900179  -0.311376641
          7   0.000000000  -0.384900179  -0.311376641
          8   0.333333333  -0.192450090  -0.311376641
          9  -0.333333333  -0.192450090  -0.311376641
         10  -0.333333333   0.192450090  -0.311376641
         11   0.333333333   0.192450090  -0.311376641
         12  -0.333333333  -0.192450090   0.311376641

     Diagonalizing the dynamical matrix

     q = (    0.000000000   0.384900179   0.311376641 ) 

 **************************************************************************
     freq (    1) =       5.196662 [THz] =     173.341980 [cm-1]
     freq (    2) =       5.543904 [THz] =     184.924741 [cm-1]
     freq (    3) =       6.786215 [THz] =     226.363771 [cm-1]
     freq (    4) =      14.015511 [THz] =     467.507140 [cm-1]
     freq (    5) =      15.217416 [THz] =     507.598360 [cm-1]
     freq (    6) =      16.516365 [THz] =     550.926633 [cm-1]
     freq (    7) =      17.854803 [THz] =     595.572112 [cm-1]
     freq (    8) =      22.386606 [THz] =     746.736795 [cm-1]
     freq (    9) =      22.986019 [THz] =     766.731079 [cm-1]
 **************************************************************************

     Mode symmetry, C_s (m)     point group:

     freq (   1-   1) =        173.3  [cm-1]   --> A'                 
     freq (   2-   2) =        184.9  [cm-1]   --> A''                
     freq (   3-   3) =        226.4  [cm-1]   --> A'                 
     freq (   4-   4) =        467.5  [cm-1]   --> A''                
     freq (   5-   5) =        507.6  [cm-1]   --> A'                 
     freq (   6-   6) =        550.9  [cm-1]   --> A'                 
     freq (   7-   7) =        595.6  [cm-1]   --> A'                 
     freq (   8-   8) =        746.7  [cm-1]   --> A''                
     freq (   9-   9) =        766.7  [cm-1]   --> A'                 
 
     init_run     :      0.21s CPU      0.22s WALL (       1 calls)
     electrons    :    488.46s CPU    501.05s WALL (       1 calls)

     Called by init_run:
     wfcinit      :      0.00s CPU      0.00s WALL (       1 calls)
     potinit      :      0.02s CPU      0.02s WALL (       1 calls)
     hinit0       :      0.03s CPU      0.04s WALL (       1 calls)

     Called by electrons:
     c_bands      :    488.22s CPU    500.81s WALL (       1 calls)
     v_of_rho     :      0.03s CPU      0.03s WALL (       2 calls)

     Called by c_bands:
     init_us_2    :     48.43s CPU     50.69s WALL (  381672 calls)
     init_us_2:cp :     47.14s CPU     49.54s WALL (  381672 calls)
     cegterg      :    460.44s CPU    472.22s WALL (    9493 calls)

     Called by *egterg:
     cdiaghg      :    164.51s CPU    168.30s WALL (  146965 calls)
     h_psi        :   5494.04s CPU   5757.17s WALL ( 6362360 calls)
     g_psi        :      1.37s CPU      1.41s WALL (  140809 calls)

     Called by h_psi:
     h_psi:calbec :    361.84s CPU    378.81s WALL ( 6362360 calls)
     vloc_psi     :   4745.17s CPU   4973.27s WALL ( 6362360 calls)
     add_vuspsi   :    314.96s CPU    330.91s WALL ( 6362360 calls)

     General routines
     calbec       :    632.78s CPU    662.96s WALL (12709850 calls)
     fft          :      1.17s CPU      1.39s WALL (    1352 calls)
     ffts         :      4.66s CPU      5.26s WALL (   27989 calls)
     fftw         :   5007.93s CPU   5259.12s WALL (92135042 calls)
     interpolate  :      0.39s CPU      0.55s WALL (     206 calls)
 
     Parallel routines
 
     PHONON       :      2h 8m CPU      2h15m WALL

     INITIALIZATION: 
     phq_setup    :      0.11s CPU      0.12s WALL (       1 calls)
     phq_init     :     16.09s CPU     16.18s WALL (       1 calls)
 
     phq_init     :     16.09s CPU     16.18s WALL (       1 calls)
     init_vloc    :      0.03s CPU      0.04s WALL (       2 calls)
     init_us_1    :      0.02s CPU      0.03s WALL (       2 calls)
     init_us_2    :     48.43s CPU     50.69s WALL (  381672 calls)
 
     DYNAMICAL MATRIX:
     dynmat0      :     13.89s CPU     13.96s WALL (       1 calls)
     phqscf       :   7230.54s CPU   7589.82s WALL (       1 calls)
     dynmatrix    :      0.01s CPU      0.06s WALL (       1 calls)
 
     phqscf       :   7230.54s CPU   7589.82s WALL (       1 calls)
     solve_linter :   7207.91s CPU   7566.65s WALL (       9 calls)
     drhodv       :     22.63s CPU     23.10s WALL (       9 calls)
 
     dynmat0      :     13.89s CPU     13.96s WALL (       1 calls)
     dynmat_us    :     13.89s CPU     13.95s WALL (       1 calls)
     d2ionq       :      0.01s CPU      0.01s WALL (       1 calls)
 
     dynmat_us    :     13.89s CPU     13.95s WALL (       1 calls)
 
     phqscf       :   7230.54s CPU   7589.82s WALL (       1 calls)
     solve_linter :   7207.91s CPU   7566.65s WALL (       9 calls)
 
     solve_linter :   7207.91s CPU   7566.65s WALL (       9 calls)
     dvqpsi_us    :    110.04s CPU    114.85s WALL (   27702 calls)
     sth_kernel   :   7088.07s CPU   7441.32s WALL (     102 calls)
     apply_dpot_b :    383.42s CPU    404.54s WALL (  286254 calls)
     ortho        :     43.37s CPU     45.62s WALL (  313956 calls)
     cgsolve      :   6135.93s CPU   6434.71s WALL (  313956 calls)
     incdrhoscf   :    406.38s CPU    430.87s WALL (  313956 calls)
     dv_of_drho   :      1.74s CPU      1.82s WALL (     102 calls)
     mix_pot      :      0.39s CPU      0.53s WALL (     102 calls)
     psymdvscf    :      2.83s CPU      2.88s WALL (     102 calls)
 
     dvqpsi_us    :    110.04s CPU    114.85s WALL (   27702 calls)
     dvqpsi_us_on :     35.58s CPU     37.06s WALL (   27702 calls)
 
     cgsolve      :   6135.93s CPU   6434.71s WALL (  313956 calls)
     ch_psi       :   5926.61s CPU   6213.83s WALL ( 6205902 calls)
 
     ch_psi       :   5926.61s CPU   6213.83s WALL ( 6205902 calls)
     h_psi        :   5494.04s CPU   5757.17s WALL ( 6362360 calls)
     last         :    570.60s CPU    597.87s WALL ( 6205902 calls)
 
     h_psi        :   5494.04s CPU   5757.17s WALL ( 6362360 calls)
     add_vuspsi   :    314.96s CPU    330.91s WALL ( 6362360 calls)
 
     incdrhoscf   :    406.38s CPU    430.87s WALL (  313956 calls)
 
 
      General routines
     calbec       :    632.78s CPU    662.96s WALL (12709850 calls)
     fft          :      1.17s CPU      1.39s WALL (    1352 calls)
     ffts         :      4.66s CPU      5.26s WALL (   27989 calls)
     fftw         :   5007.93s CPU   5259.12s WALL (92135042 calls)
 
 
     PHONON       :      2h 8m CPU      2h15m WALL

 
   This run was terminated on:   3:46:11  15Jun2022            

=------------------------------------------------------------------------------=
   JOB DONE.
=------------------------------------------------------------------------------=
