
     Program BANDS v.7.0 starts on 28Apr2022 at 11:47:29 

     This program is part of the open-source Quantum ESPRESSO suite
     for quantum simulation of materials; please cite
         "P. Giannozzi et al., J. Phys.:Condens. Matter 21 395502 (2009);
         "P. Giannozzi et al., J. Phys.:Condens. Matter 29 465901 (2017);
         "P. Giannozzi et al., J. Chem. Phys. 152 154105 (2020);
          URL http://www.quantum-espresso.org", 
     in publications or presentations arising from this work. More details at
     http://www.quantum-espresso.org/quote

     Parallel version (MPI), running on     8 processors

     MPI processes distributed on     1 nodes
     R & G space division:  proc/nbgrp/npool/nimage =       8
     2408 MiB available memory on the printing compute node when the environment starts
 

     Reading xml data from directory:

     ./tmp/mob2.save/

     IMPORTANT: XC functional enforced from input :
     Exchange-correlation= PBE
                           (   1   4   3   4   0   0   0)
     Any further DFT definition will be discarded
     Please, verify this is what you really want

 
     Parallelization info
     --------------------
     sticks:   dense  smooth     PW     G-vecs:    dense   smooth      PW
     Min          37      37     12                  573      573     108
     Max          38      38     13                  576      576     111
     Sum         301     301     97                 4595     4595     877
 
     Using Slab Decomposition
 
     Reading collected, re-writing distributed wavefunctions
     high-symmetry point:  0.0000 0.0000 0.0000   x coordinate   0.0000
     high-symmetry point:  0.0000 0.5774 0.0000   x coordinate   0.5774
     high-symmetry point:  0.3333 0.5774 0.0000   x coordinate   0.9107
     high-symmetry point:  0.0000 0.0000 0.0000   x coordinate   1.5774
     high-symmetry point:  0.0000 0.0000 0.4620   x coordinate   2.0394
     high-symmetry point:  0.0000 0.5774 0.4620   x coordinate   2.6167
     high-symmetry point:  0.3333 0.5774 0.4620   x coordinate   2.9501
     high-symmetry point:  0.0000 0.0000 0.4620   x coordinate   3.6167

     Plottable bands (eV) written to file mob2_bands.bands.gnu
     Bands written to file mob2_bands.bands

 **************************************************************************

                    xk=(   0.00000,   0.00000,   0.00000  )

     point group D_6h(6/mmm)
     there are 12 classes
     the character table:

       E     2C6   2C3   C2    3C2'  3C2'' i     2S3   2S6   s_h   3s_d  3s_v 
A_1g   1.00  1.00  1.00  1.00  1.00  1.00  1.00  1.00  1.00  1.00  1.00  1.00
A_2g   1.00  1.00  1.00  1.00 -1.00 -1.00  1.00  1.00  1.00  1.00 -1.00 -1.00
B_1g   1.00 -1.00  1.00 -1.00  1.00 -1.00  1.00 -1.00  1.00 -1.00  1.00 -1.00
B_2g   1.00 -1.00  1.00 -1.00 -1.00  1.00  1.00 -1.00  1.00 -1.00 -1.00  1.00
E_1g   2.00  1.00 -1.00 -2.00  0.00  0.00  2.00  1.00 -1.00 -2.00  0.00  0.00
E_2g   2.00 -1.00 -1.00  2.00  0.00  0.00  2.00 -1.00 -1.00  2.00  0.00  0.00
A_1u   1.00  1.00  1.00  1.00  1.00  1.00 -1.00 -1.00 -1.00 -1.00 -1.00 -1.00
A_2u   1.00  1.00  1.00  1.00 -1.00 -1.00 -1.00 -1.00 -1.00 -1.00  1.00  1.00
B_1u   1.00 -1.00  1.00 -1.00  1.00 -1.00 -1.00  1.00 -1.00  1.00 -1.00  1.00
B_2u   1.00 -1.00  1.00 -1.00 -1.00  1.00 -1.00  1.00 -1.00  1.00  1.00 -1.00
E_1u   2.00  1.00 -1.00 -2.00  0.00  0.00 -2.00 -1.00  1.00  2.00  0.00  0.00
E_2u   2.00 -1.00 -1.00  2.00  0.00  0.00 -2.00  1.00  1.00 -2.00  0.00  0.00

     the symmetry operations in each class and the name of the first element:

     E        1
                                                                 
     2C6      5    6
                                                                 
     2C3      7    8
                                                                 
     C2       2
                                                                 
     3C2'     4   12   11
                                                                 
     3C2''    3    9   10
                                                                 
     i       13
                                                                 
     2S3     17   18
                                                                 
     2S6     19   20
                                                                 
     s_h     14
                                                                 
     3s_d    16   24   23
                                                                 
     3s_v    15   21   22
                                                                 

     Band symmetry, D_6h(6/mmm) point group:

     e(  1 -  1) =    -39.77042  eV     1   --> A_1g           
     e(  2 -  2) =    -14.01153  eV     1   --> A_2u           
     e(  3 -  4) =    -13.52775  eV     2   --> E_1u           
     e(  5 -  5) =      6.46206  eV     1   --> A_1g           
     e(  6 -  6) =     16.46327  eV     1   --> A_1g           
     e(  7 -  8) =     16.81256  eV     2   --> E_2g           
     e(  9 -  9) =     18.30156  eV     1   --> A_2u           
     e( 10 - 11) =     22.31062  eV     2   --> E_1g           
     e( 12 - 13) =     24.85986  eV     2   --> E_2g           
     e( 14 - 15) =     26.94626  eV     2   --> E_1u           
     e( 16 - 16) =     27.83940  eV     1   --> B_2u           
     e( 17 - 17) =     30.86796  eV     1   --> B_1g           
     e( 18 - 18) =     32.28055  eV     1   --> A_1g           
     e( 19 - 20) =     39.41293  eV     2   --> E_2u           

 **************************************************************************

 **************************************************************************

                    xk=(   0.00000,   0.01443,   0.00000  )

     point group C_2v (mm2) 
     there are  4 classes
     the character table:

       E     C2    s_v   s_v' 
A_1    1.00  1.00  1.00  1.00
A_2    1.00  1.00 -1.00 -1.00
B_1    1.00 -1.00  1.00 -1.00
B_2    1.00 -1.00 -1.00  1.00

     the symmetry operations in each class and the name of the first element:

     E        1
                                                                 
     C2       2
                                                                 
     s_v      3
                                                                 
     s_v'     4
                                                                 

     Band symmetry, C_2v (mm2)  point group:

     e(  1 -  1) =    -39.77024  eV     1   --> A_1  D_1  S_1  
     e(  2 -  2) =    -14.01129  eV     1   --> B_2  D_4  S_4  
     e(  3 -  3) =    -13.52920  eV     1   --> A_1  D_1  S_1  
     e(  4 -  4) =    -13.52808  eV     1   --> B_1  D_3  S_3  
     e(  5 -  5) =      6.46563  eV     1   --> A_1  D_1  S_1  
     e(  6 -  6) =     16.46623  eV     1   --> A_1  D_1  S_1  
     e(  7 -  7) =     16.80448  eV     1   --> A_1  D_1  S_1  
     e(  8 -  8) =     16.81437  eV     1   --> B_1  D_3  S_3  
     e(  9 -  9) =     18.29249  eV     1   --> B_2  D_4  S_4  
     e( 10 - 10) =     22.30890  eV     1   --> A_2  D_2  S_2  
     e( 11 - 11) =     22.32275  eV     1   --> B_2  D_4  S_4  
     e( 12 - 12) =     24.83484  eV     1   --> A_1  D_1  S_1  
     e( 13 - 13) =     24.83847  eV     1   --> B_1  D_3  S_3  
     e( 14 - 14) =     26.96897  eV     1   --> A_1  D_1  S_1  
     e( 15 - 15) =     26.97615  eV     1   --> B_1  D_3  S_3  
     e( 16 - 16) =     27.85222  eV     1   --> A_1  D_1  S_1  
     e( 17 - 17) =     30.85283  eV     1   --> B_2  D_4  S_4  
     e( 18 - 18) =     32.28379  eV     1   --> A_1  D_1  S_1  
     e( 19 - 19) =     39.42010  eV     1   --> A_2  D_2  S_2  
     e( 20 - 20) =     39.43783  eV     1   --> B_2  D_4  S_4  

 **************************************************************************

 **************************************************************************

                    xk=(   0.00000,   0.02887,   0.00000  )

     Band symmetry, C_2v (mm2)  point group:

     e(  1 -  1) =    -39.76971  eV     1   --> A_1  D_1  S_1  
     e(  2 -  2) =    -14.01058  eV     1   --> B_2  D_4  S_4  
     e(  3 -  3) =    -13.53352  eV     1   --> A_1  D_1  S_1  
     e(  4 -  4) =    -13.52905  eV     1   --> B_1  D_3  S_3  
     e(  5 -  5) =      6.47633  eV     1   --> A_1  D_1  S_1  
     e(  6 -  6) =     16.47504  eV     1   --> A_1  D_1  S_1  
     e(  7 -  7) =     16.78040  eV     1   --> A_1  D_1  S_1  
     e(  8 -  8) =     16.81978  eV     1   --> B_1  D_3  S_3  
     e(  9 -  9) =     18.26566  eV     1   --> B_2  D_4  S_4  
     e( 10 - 10) =     22.30375  eV     1   --> A_2  D_2  S_2  
     e( 11 - 11) =     22.35869  eV     1   --> B_2  D_4  S_4  
     e( 12 - 12) =     24.76318  eV     1   --> A_1  D_1  S_1  
     e( 13 - 13) =     24.77783  eV     1   --> B_1  D_3  S_3  
     e( 14 - 14) =     27.03374  eV     1   --> A_1  D_1  S_1  
     e( 15 - 15) =     27.06228  eV     1   --> B_1  D_3  S_3  
     e( 16 - 16) =     27.89049  eV     1   --> A_1  D_1  S_1  
     e( 17 - 17) =     30.80810  eV     1   --> B_2  D_4  S_4  
     e( 18 - 18) =     32.29344  eV     1   --> A_1  D_1  S_1  
     e( 19 - 19) =     39.44158  eV     1   --> A_2  D_2  S_2  
     e( 20 - 20) =     39.51190  eV     1   --> B_2  D_4  S_4  

 **************************************************************************

 **************************************************************************

                    xk=(   0.00000,   0.04330,   0.00000  )

     Band symmetry, C_2v (mm2)  point group:

     e(  1 -  1) =    -39.76884  eV     1   --> A_1  D_1  S_1  
     e(  2 -  2) =    -14.00939  eV     1   --> B_2  D_4  S_4  
     e(  3 -  3) =    -13.54069  eV     1   --> A_1  D_1  S_1  
     e(  4 -  4) =    -13.53067  eV     1   --> B_1  D_3  S_3  
     e(  5 -  5) =      6.49401  eV     1   --> A_1  D_1  S_1  
     e(  6 -  6) =     16.48954  eV     1   --> A_1  D_1  S_1  
     e(  7 -  7) =     16.74073  eV     1   --> A_1  D_1  S_1  
     e(  8 -  8) =     16.82872  eV     1   --> B_1  D_3  S_3  
     e(  9 -  9) =     18.22213  eV     1   --> B_2  D_4  S_4  
     e( 10 - 10) =     22.29521  eV     1   --> A_2  D_2  S_2  
     e( 11 - 11) =     22.41727  eV     1   --> B_2  D_4  S_4  
     e( 12 - 12) =     24.65327  eV     1   --> A_1  D_1  S_1  
     e( 13 - 13) =     24.68656  eV     1   --> B_1  D_3  S_3  
     e( 14 - 14) =     27.13164  eV     1   --> A_1  D_1  S_1  
     e( 15 - 15) =     27.19601  eV     1   --> B_1  D_3  S_3  
     e( 16 - 16) =     27.95366  eV     1   --> A_1  D_1  S_1  
     e( 17 - 17) =     30.73565  eV     1   --> B_2  D_4  S_4  
     e( 18 - 18) =     32.30869  eV     1   --> A_1  D_1  S_1  
     e( 19 - 19) =     39.47731  eV     1   --> A_2  D_2  S_2  
     e( 20 - 20) =     39.63332  eV     1   --> B_2  D_4  S_4  

 **************************************************************************

 **************************************************************************

                    xk=(   0.00000,   0.05774,   0.00000  )

     Band symmetry, C_2v (mm2)  point group:

     e(  1 -  1) =    -39.76761  eV     1   --> A_1  D_1  S_1  
     e(  2 -  2) =    -14.00774  eV     1   --> B_2  D_4  S_4  
     e(  3 -  3) =    -13.55065  eV     1   --> A_1  D_1  S_1  
     e(  4 -  4) =    -13.53291  eV     1   --> B_1  D_3  S_3  
     e(  5 -  5) =      6.51874  eV     1   --> A_1  D_1  S_1  
     e(  6 -  6) =     16.50932  eV     1   --> A_1  D_1  S_1  
     e(  7 -  7) =     16.68625  eV     1   --> A_1  D_1  S_1  
     e(  8 -  8) =     16.84105  eV     1   --> B_1  D_3  S_3  
     e(  9 -  9) =     18.16351  eV     1   --> B_2  D_4  S_4  
     e( 10 - 10) =     22.28336  eV     1   --> A_2  D_2  S_2  
     e( 11 - 11) =     22.49666  eV     1   --> B_2  D_4  S_4  
     e( 12 - 12) =     24.51505  eV     1   --> A_1  D_1  S_1  
     e( 13 - 13) =     24.57445  eV     1   --> B_1  D_3  S_3  
     e( 14 - 14) =     27.25427  eV     1   --> A_1  D_1  S_1  
     e( 15 - 15) =     27.36714  eV     1   --> B_1  D_3  S_3  
     e( 16 - 16) =     28.04098  eV     1   --> A_1  D_1  S_1  
     e( 17 - 17) =     30.63833  eV     1   --> B_2  D_4  S_4  
     e( 18 - 18) =     32.32986  eV     1   --> A_1  D_1  S_1  
     e( 19 - 19) =     39.52719  eV     1   --> A_2  D_2  S_2  
     e( 20 - 20) =     39.79929  eV     1   --> B_2  D_4  S_4  

 **************************************************************************

 **************************************************************************

                    xk=(   0.00000,   0.07217,   0.00000  )

     Band symmetry, C_2v (mm2)  point group:

     e(  1 -  1) =    -39.76605  eV     1   --> A_1  D_1  S_1  
     e(  2 -  2) =    -14.00563  eV     1   --> B_2  D_4  S_4  
     e(  3 -  3) =    -13.56334  eV     1   --> A_1  D_1  S_1  
     e(  4 -  4) =    -13.53577  eV     1   --> B_1  D_3  S_3  
     e(  5 -  5) =      6.55056  eV     1   --> A_1  D_1  S_1  
     e(  6 -  6) =     16.53298  eV     1   --> A_1  D_1  S_1  
     e(  7 -  7) =     16.61888  eV     1   --> A_1  D_1  S_1  
     e(  8 -  8) =     16.85659  eV     1   --> B_1  D_3  S_3  
     e(  9 -  9) =     18.09174  eV     1   --> B_2  D_4  S_4  
     e( 10 - 10) =     22.26831  eV     1   --> A_2  D_2  S_2  
     e( 11 - 11) =     22.59459  eV     1   --> B_2  D_4  S_4  
     e( 12 - 12) =     24.35745  eV     1   --> A_1  D_1  S_1  
     e( 13 - 13) =     24.45008  eV     1   --> B_1  D_3  S_3  
     e( 14 - 14) =     27.39272  eV     1   --> A_1  D_1  S_1  
     e( 15 - 15) =     27.56822  eV     1   --> B_1  D_3  S_3  
     e( 16 - 16) =     28.15159  eV     1   --> A_1  D_1  S_1  
     e( 17 - 17) =     30.51973  eV     1   --> B_2  D_4  S_4  
     e( 18 - 18) =     32.35719  eV     1   --> A_1  D_1  S_1  
     e( 19 - 19) =     39.59106  eV     1   --> A_2  D_2  S_2  
     e( 20 - 20) =     40.00635  eV     1   --> B_2  D_4  S_4  

 **************************************************************************

 **************************************************************************

                    xk=(   0.00000,   0.08660,   0.00000  )

     Band symmetry, C_2v (mm2)  point group:

     e(  1 -  1) =    -39.76416  eV     1   --> A_1  D_1  S_1  
     e(  2 -  2) =    -14.00308  eV     1   --> B_2  D_4  S_4  
     e(  3 -  3) =    -13.57865  eV     1   --> A_1  D_1  S_1  
     e(  4 -  4) =    -13.53923  eV     1   --> B_1  D_3  S_3  
     e(  5 -  5) =      6.58927  eV     1   --> A_1  D_1  S_1  
     e(  6 -  6) =     16.52554  eV     1   --> A_1  D_1  S_1  
     e(  7 -  7) =     16.57413  eV     1   --> A_1  D_1  S_1  
     e(  8 -  8) =     16.87512  eV     1   --> B_1  D_3  S_3  
     e(  9 -  9) =     18.00891  eV     1   --> B_2  D_4  S_4  
     e( 10 - 10) =     22.25018  eV     1   --> A_2  D_2  S_2  
     e( 11 - 11) =     22.70856  eV     1   --> B_2  D_4  S_4  
     e( 12 - 12) =     24.18760  eV     1   --> A_1  D_1  S_1  
     e( 13 - 13) =     24.31986  eV     1   --> B_1  D_3  S_3  
     e( 14 - 14) =     27.53976  eV     1   --> A_1  D_1  S_1  
     e( 15 - 15) =     27.79236  eV     1   --> B_1  D_3  S_3  
     e( 16 - 16) =     28.28455  eV     1   --> A_1  D_1  S_1  
     e( 17 - 17) =     30.38381  eV     1   --> B_2  D_4  S_4  
     e( 18 - 18) =     32.38964  eV     1   --> A_1  D_1  S_1  
     e( 19 - 19) =     39.66874  eV     1   --> A_2  D_2  S_2  
     e( 20 - 20) =     40.25068  eV     1   --> B_2  D_4  S_4  

 **************************************************************************

 **************************************************************************

                    xk=(   0.00000,   0.10104,   0.00000  )

     Band symmetry, C_2v (mm2)  point group:

     e(  1 -  1) =    -39.76196  eV     1   --> A_1  D_1  S_1  
     e(  2 -  2) =    -14.00011  eV     1   --> B_2  D_4  S_4  
     e(  3 -  3) =    -13.59649  eV     1   --> A_1  D_1  S_1  
     e(  4 -  4) =    -13.54327  eV     1   --> B_1  D_3  S_3  
     e(  5 -  5) =      6.63465  eV     1   --> A_1  D_1  S_1  
     e(  6 -  6) =     16.43593  eV     1   --> A_1  D_1  S_1  
     e(  7 -  7) =     16.60359  eV     1   --> A_1  D_1  S_1  
     e(  8 -  8) =     16.89636  eV     1   --> B_1  D_3  S_3  
     e(  9 -  9) =     17.91709  eV     1   --> B_2  D_4  S_4  
     e( 10 - 10) =     22.22914  eV     1   --> A_2  D_2  S_2  
     e( 11 - 11) =     22.83596  eV     1   --> B_2  D_4  S_4  
     e( 12 - 12) =     24.01104  eV     1   --> A_1  D_1  S_1  
     e( 13 - 13) =     24.18831  eV     1   --> B_1  D_3  S_3  
     e( 14 - 14) =     27.68994  eV     1   --> A_1  D_1  S_1  
     e( 15 - 15) =     28.03425  eV     1   --> B_1  D_3  S_3  
     e( 16 - 16) =     28.43901  eV     1   --> A_1  D_1  S_1  
     e( 17 - 17) =     30.23470  eV     1   --> B_2  D_4  S_4  
     e( 18 - 18) =     32.42603  eV     1   --> A_1  D_1  S_1  
     e( 19 - 19) =     39.76000  eV     1   --> A_2  D_2  S_2  
     e( 20 - 20) =     40.52833  eV     1   --> B_2  D_4  S_4  

 **************************************************************************

 **************************************************************************

                    xk=(   0.00000,   0.11547,   0.00000  )

     Band symmetry, C_2v (mm2)  point group:

     e(  1 -  1) =    -39.75945  eV     1   --> A_1  D_1  S_1  
     e(  2 -  2) =    -13.99672  eV     1   --> B_2  D_4  S_4  
     e(  3 -  3) =    -13.61672  eV     1   --> A_1  D_1  S_1  
     e(  4 -  4) =    -13.54786  eV     1   --> B_1  D_3  S_3  
     e(  5 -  5) =      6.68597  eV     1   --> A_1  D_1  S_1  
     e(  6 -  6) =     16.33019  eV     1   --> A_1  D_1  S_1  
     e(  7 -  7) =     16.64130  eV     1   --> A_1  D_1  S_1  
     e(  8 -  8) =     16.91992  eV     1   --> B_1  D_3  S_3  
     e(  9 -  9) =     17.81817  eV     1   --> B_2  D_4  S_4  
     e( 10 - 10) =     22.20534  eV     1   --> A_2  D_2  S_2  
     e( 11 - 11) =     22.97415  eV     1   --> B_2  D_4  S_4  
     e( 12 - 12) =     23.83070  eV     1   --> A_1  D_1  S_1  
     e( 13 - 13) =     24.05896  eV     1   --> B_1  D_3  S_3  
     e( 14 - 14) =     27.83827  eV     1   --> A_1  D_1  S_1  
     e( 15 - 15) =     28.29195  eV     1   --> B_1  D_3  S_3  
     e( 16 - 16) =     28.61354  eV     1   --> A_1  D_1  S_1  
     e( 17 - 17) =     30.07615  eV     1   --> B_2  D_4  S_4  
     e( 18 - 18) =     32.46540  eV     1   --> A_1  D_1  S_1  
     e( 19 - 19) =     39.86444  eV     1   --> A_2  D_2  S_2  
     e( 20 - 20) =     40.83518  eV     1   --> B_2  D_4  S_4  

 **************************************************************************

 **************************************************************************

                    xk=(   0.00000,   0.12990,   0.00000  )

     Band symmetry, C_2v (mm2)  point group:

     e(  1 -  1) =    -39.75665  eV     1   --> A_1  D_1  S_1  
     e(  2 -  2) =    -13.99295  eV     1   --> B_2  D_4  S_4  
     e(  3 -  3) =    -13.63920  eV     1   --> A_1  D_1  S_1  
     e(  4 -  4) =    -13.55296  eV     1   --> B_1  D_3  S_3  
     e(  5 -  5) =      6.74459  eV     1   --> A_1  D_1  S_1  
     e(  6 -  6) =     16.21431  eV     1   --> A_1  D_1  S_1  
     e(  7 -  7) =     16.68254  eV     1   --> A_1  D_1  S_1  
     e(  8 -  8) =     16.94556  eV     1   --> B_1  D_3  S_3  
     e(  9 -  9) =     17.71397  eV     1   --> B_2  D_4  S_4  
     e( 10 - 10) =     22.17901  eV     1   --> A_2  D_2  S_2  
     e( 11 - 11) =     23.12054  eV     1   --> B_2  D_4  S_4  
     e( 12 - 12) =     23.65287  eV     1   --> A_1  D_1  S_1  
     e( 13 - 13) =     23.93421  eV     1   --> B_1  D_3  S_3  
     e( 14 - 14) =     27.98328  eV     1   --> A_1  D_1  S_1  
     e( 15 - 15) =     28.56286  eV     1   --> B_1  D_3  S_3  
     e( 16 - 16) =     28.80862  eV     1   --> A_1  D_1  S_1  
     e( 17 - 17) =     29.91281  eV     1   --> B_2  D_4  S_4  
     e( 18 - 18) =     32.50837  eV     1   --> A_1  D_1  S_1  
     e( 19 - 19) =     39.98201  eV     1   --> A_2  D_2  S_2  
     e( 20 - 20) =     41.16795  eV     1   --> B_2  D_4  S_4  

 **************************************************************************

 **************************************************************************

                    xk=(   0.00000,   0.14434,   0.00000  )

     Band symmetry, C_2v (mm2)  point group:

     e(  1 -  1) =    -39.75359  eV     1   --> A_1  D_1  S_1  
     e(  2 -  2) =    -13.98881  eV     1   --> B_2  D_4  S_4  
     e(  3 -  3) =    -13.66376  eV     1   --> A_1  D_1  S_1  
     e(  4 -  4) =    -13.55855  eV     1   --> B_1  D_3  S_3  
     e(  5 -  5) =      6.80937  eV     1   --> A_1  D_1  S_1  
     e(  6 -  6) =     16.08925  eV     1   --> A_1  D_1  S_1  
     e(  7 -  7) =     16.72609  eV     1   --> A_1  D_1  S_1  
     e(  8 -  8) =     16.97249  eV     1   --> B_1  D_3  S_3  
     e(  9 -  9) =     17.60600  eV     1   --> B_2  D_4  S_4  
     e( 10 - 10) =     22.15034  eV     1   --> A_2  D_2  S_2  
     e( 11 - 11) =     23.27253  eV     1   --> B_2  D_4  S_4  
     e( 12 - 12) =     23.47897  eV     1   --> A_1  D_1  S_1  
     e( 13 - 13) =     23.81526  eV     1   --> B_1  D_3  S_3  
     e( 14 - 14) =     28.12140  eV     1   --> A_1  D_1  S_1  
     e( 15 - 15) =     28.84509  eV     1   --> B_1  D_3  S_3  
     e( 16 - 16) =     29.02170  eV     1   --> A_1  D_1  S_1  
     e( 17 - 17) =     29.74772  eV     1   --> B_2  D_4  S_4  
     e( 18 - 18) =     32.55252  eV     1   --> A_1  D_1  S_1  
     e( 19 - 19) =     40.11214  eV     1   --> A_2  D_2  S_2  
     e( 20 - 20) =     41.52277  eV     1   --> B_2  D_4  S_4  

 **************************************************************************

 **************************************************************************

                    xk=(   0.00000,   0.15877,   0.00000  )

     Band symmetry, C_2v (mm2)  point group:

     e(  1 -  1) =    -39.75027  eV     1   --> A_1  D_1  S_1  
     e(  2 -  2) =    -13.98432  eV     1   --> B_2  D_4  S_4  
     e(  3 -  3) =    -13.69025  eV     1   --> A_1  D_1  S_1  
     e(  4 -  4) =    -13.56459  eV     1   --> B_1  D_3  S_3  
     e(  5 -  5) =      6.88055  eV     1   --> A_1  D_1  S_1  
     e(  6 -  6) =     15.95627  eV     1   --> A_1  D_1  S_1  
     e(  7 -  7) =     16.77087  eV     1   --> A_1  D_1  S_1  
     e(  8 -  8) =     17.00092  eV     1   --> B_1  D_3  S_3  
     e(  9 -  9) =     17.49549  eV     1   --> B_2  D_4  S_4  
     e( 10 - 10) =     22.11957  eV     1   --> A_2  D_2  S_2  
     e( 11 - 11) =     23.31142  eV     1   --> A_1  D_1  S_1  
     e( 12 - 12) =     23.42754  eV     1   --> B_2  D_4  S_4  
     e( 13 - 13) =     23.70451  eV     1   --> B_1  D_3  S_3  
     e( 14 - 14) =     28.25215  eV     1   --> A_1  D_1  S_1  
     e( 15 - 15) =     29.13742  eV     1   --> B_1  D_3  S_3  
     e( 16 - 16) =     29.25245  eV     1   --> A_1  D_1  S_1  
     e( 17 - 17) =     29.58468  eV     1   --> B_2  D_4  S_4  
     e( 18 - 18) =     32.59665  eV     1   --> A_1  D_1  S_1  
     e( 19 - 19) =     40.25469  eV     1   --> A_2  D_2  S_2  
     e( 20 - 20) =     41.89620  eV     1   --> B_2  D_4  S_4  

 **************************************************************************

 **************************************************************************

                    xk=(   0.00000,   0.17321,   0.00000  )

     Band symmetry, C_2v (mm2)  point group:

     e(  1 -  1) =    -39.74671  eV     1   --> A_1  D_1  S_1  
     e(  2 -  2) =    -13.97952  eV     1   --> B_2  D_4  S_4  
     e(  3 -  3) =    -13.71848  eV     1   --> A_1  D_1  S_1  
     e(  4 -  4) =    -13.57104  eV     1   --> B_1  D_3  S_3  
     e(  5 -  5) =      6.95716  eV     1   --> A_1  D_1  S_1  
     e(  6 -  6) =     15.81690  eV     1   --> A_1  D_1  S_1  
     e(  7 -  7) =     16.81577  eV     1   --> A_1  D_1  S_1  
     e(  8 -  8) =     17.03021  eV     1   --> B_1  D_3  S_3  
     e(  9 -  9) =     17.38378  eV     1   --> B_2  D_4  S_4  
     e( 10 - 10) =     22.08693  eV     1   --> A_2  D_2  S_2  
     e( 11 - 11) =     23.15346  eV     1   --> A_1  D_1  S_1  
     e( 12 - 12) =     23.58292  eV     1   --> B_2  D_4  S_4  
     e( 13 - 13) =     23.60229  eV     1   --> B_1  D_3  S_3  
     e( 14 - 14) =     28.37637  eV     1   --> A_1  D_1  S_1  
     e( 15 - 15) =     29.42833  eV     1   --> B_2  D_4  S_4  
     e( 16 - 16) =     29.43799  eV     1   --> B_1  D_3  S_3  
     e( 17 - 17) =     29.49987  eV     1   --> A_1  D_1  S_1  
     e( 18 - 18) =     32.63884  eV     1   --> A_1  D_1  S_1  
     e( 19 - 19) =     40.40913  eV     1   --> A_2  D_2  S_2  
     e( 20 - 20) =     42.28490  eV     1   --> B_2  D_4  S_4  

 **************************************************************************

 **************************************************************************

                    xk=(   0.00000,   0.18764,   0.00000  )

     Band symmetry, C_2v (mm2)  point group:

     e(  1 -  1) =    -39.74293  eV     1   --> A_1  D_1  S_1  
     e(  2 -  2) =    -13.97444  eV     1   --> B_2  D_4  S_4  
     e(  3 -  3) =    -13.74825  eV     1   --> A_1  D_1  S_1  
     e(  4 -  4) =    -13.57787  eV     1   --> B_1  D_3  S_3  
     e(  5 -  5) =      7.04022  eV     1   --> A_1  D_1  S_1  
     e(  6 -  6) =     15.67207  eV     1   --> A_1  D_1  S_1  
     e(  7 -  7) =     16.85955  eV     1   --> A_1  D_1  S_1  
     e(  8 -  8) =     17.05973  eV     1   --> B_1  D_3  S_3  
     e(  9 -  9) =     17.27176  eV     1   --> B_2  D_4  S_4  
     e( 10 - 10) =     22.05267  eV     1   --> A_2  D_2  S_2  
     e( 11 - 11) =     23.00780  eV     1   --> A_1  D_1  S_1  
     e( 12 - 12) =     23.50981  eV     1   --> B_1  D_3  S_3  
     e( 13 - 13) =     23.73590  eV     1   --> B_2  D_4  S_4  
     e( 14 - 14) =     28.48939  eV     1   --> A_1  D_1  S_1  
     e( 15 - 15) =     29.28147  eV     1   --> B_2  D_4  S_4  
     e( 16 - 16) =     29.74860  eV     1   --> B_1  D_3  S_3  
     e( 17 - 17) =     29.76194  eV     1   --> A_1  D_1  S_1  
     e( 18 - 18) =     32.67849  eV     1   --> A_1  D_1  S_1  
     e( 19 - 19) =     40.57517  eV     1   --> A_2  D_2  S_2  
     e( 20 - 20) =     42.68460  eV     1   --> B_2  D_4  S_4  

 **************************************************************************

 **************************************************************************

                    xk=(   0.00000,   0.20207,   0.00000  )

     Band symmetry, C_2v (mm2)  point group:

     e(  1 -  1) =    -39.73897  eV     1   --> A_1  D_1  S_1  
     e(  2 -  2) =    -13.96909  eV     1   --> B_2  D_4  S_4  
     e(  3 -  3) =    -13.77936  eV     1   --> A_1  D_1  S_1  
     e(  4 -  4) =    -13.58501  eV     1   --> B_1  D_3  S_3  
     e(  5 -  5) =      7.12894  eV     1   --> A_1  D_1  S_1  
     e(  6 -  6) =     15.52130  eV     1   --> A_1  D_1  S_1  
     e(  7 -  7) =     16.90087  eV     1   --> A_1  D_1  S_1  
     e(  8 -  8) =     17.08896  eV     1   --> B_1  D_3  S_3  
     e(  9 -  9) =     17.16022  eV     1   --> B_2  D_4  S_4  
     e( 10 - 10) =     22.01704  eV     1   --> A_2  D_2  S_2  
     e( 11 - 11) =     22.87463  eV     1   --> A_1  D_1  S_1  
     e( 12 - 12) =     23.42744  eV     1   --> B_1  D_3  S_3  
     e( 13 - 13) =     23.88362  eV     1   --> B_2  D_4  S_4  
     e( 14 - 14) =     28.59321  eV     1   --> A_1  D_1  S_1  
     e( 15 - 15) =     29.14742  eV     1   --> B_2  D_4  S_4  
     e( 16 - 16) =     30.03693  eV     1   --> A_1  D_1  S_1  
     e( 17 - 17) =     30.06604  eV     1   --> B_1  D_3  S_3  
     e( 18 - 18) =     32.71312  eV     1   --> A_1  D_1  S_1  
     e( 19 - 19) =     40.75210  eV     1   --> A_2  D_2  S_2  
     e( 20 - 20) =     43.09097  eV     1   --> B_2  D_4  S_4  

 **************************************************************************

 **************************************************************************

                    xk=(   0.00000,   0.21651,   0.00000  )

     Band symmetry, C_2v (mm2)  point group:

     e(  1 -  1) =    -39.73485  eV     1   --> A_1  D_1  S_1  
     e(  2 -  2) =    -13.96353  eV     1   --> B_2  D_4  S_4  
     e(  3 -  3) =    -13.81161  eV     1   --> A_1  D_1  S_1  
     e(  4 -  4) =    -13.59244  eV     1   --> B_1  D_3  S_3  
     e(  5 -  5) =      7.22312  eV     1   --> A_1  D_1  S_1  
     e(  6 -  6) =     15.36650  eV     1   --> A_1  D_1  S_1  
     e(  7 -  7) =     16.93839  eV     1   --> A_1  D_1  S_1  
     e(  8 -  8) =     17.04995  eV     1   --> B_2  D_4  S_4  
     e(  9 -  9) =     17.11753  eV     1   --> B_1  D_3  S_3  
     e( 10 - 10) =     21.98030  eV     1   --> A_2  D_2  S_2  
     e( 11 - 11) =     22.75740  eV     1   --> A_1  D_1  S_1  
     e( 12 - 12) =     23.35572  eV     1   --> B_1  D_3  S_3  
     e( 13 - 13) =     24.02306  eV     1   --> B_2  D_4  S_4  
     e( 14 - 14) =     28.68801  eV     1   --> A_1  D_1  S_1  
     e( 15 - 15) =     29.03096  eV     1   --> B_2  D_4  S_4  
     e( 16 - 16) =     30.32353  eV     1   --> A_1  D_1  S_1  
     e( 17 - 17) =     30.39063  eV     1   --> B_1  D_3  S_3  
     e( 18 - 18) =     32.74090  eV     1   --> A_1  D_1  S_1  
     e( 19 - 19) =     40.93954  eV     1   --> A_2  D_2  S_2  
     e( 20 - 20) =     43.40993  eV     1   --> A_1  D_1  S_1  

 **************************************************************************

 **************************************************************************

                    xk=(   0.00000,   0.23094,   0.00000  )

     Band symmetry, C_2v (mm2)  point group:

     e(  1 -  1) =    -39.73059  eV     1   --> A_1  D_1  S_1  
     e(  2 -  2) =    -13.95777  eV     1   --> B_2  D_4  S_4  
     e(  3 -  3) =    -13.84479  eV     1   --> A_1  D_1  S_1  
     e(  4 -  4) =    -13.60011  eV     1   --> B_1  D_3  S_3  
     e(  5 -  5) =      7.32255  eV     1   --> A_1  D_1  S_1  
     e(  6 -  6) =     15.20787  eV     1   --> A_1  D_1  S_1  
     e(  7 -  7) =     16.94138  eV     1   --> B_2  D_4  S_4  
     e(  8 -  8) =     16.97071  eV     1   --> A_1  D_1  S_1  
     e(  9 -  9) =     17.14498  eV     1   --> B_1  D_3  S_3  
     e( 10 - 10) =     21.94271  eV     1   --> A_2  D_2  S_2  
     e( 11 - 11) =     22.65742  eV     1   --> A_1  D_1  S_1  
     e( 12 - 12) =     23.29500  eV     1   --> B_1  D_3  S_3  
     e( 13 - 13) =     24.15114  eV     1   --> B_2  D_4  S_4  
     e( 14 - 14) =     28.77399  eV     1   --> A_1  D_1  S_1  
     e( 15 - 15) =     28.93312  eV     1   --> B_2  D_4  S_4  
     e( 16 - 16) =     30.62013  eV     1   --> A_1  D_1  S_1  
     e( 17 - 17) =     30.72187  eV     1   --> B_1  D_3  S_3  
     e( 18 - 18) =     32.75995  eV     1   --> A_1  D_1  S_1  
     e( 19 - 19) =     41.13697  eV     1   --> A_2  D_2  S_2  
     e( 20 - 20) =     43.35977  eV     1   --> A_1  D_1  S_1  

 **************************************************************************

 **************************************************************************

                    xk=(   0.00000,   0.24537,   0.00000  )

     Band symmetry, C_2v (mm2)  point group:

     e(  1 -  1) =    -39.72621  eV     1   --> A_1  D_1  S_1  
     e(  2 -  2) =    -13.95186  eV     1   --> B_2  D_4  S_4  
     e(  3 -  3) =    -13.87868  eV     1   --> A_1  D_1  S_1  
     e(  4 -  4) =    -13.60796  eV     1   --> B_1  D_3  S_3  
     e(  5 -  5) =      7.42703  eV     1   --> A_1  D_1  S_1  
     e(  6 -  6) =     15.04628  eV     1   --> A_1  D_1  S_1  
     e(  7 -  7) =     16.83510  eV     1   --> B_2  D_4  S_4  
     e(  8 -  8) =     16.99653  eV     1   --> A_1  D_1  S_1  
     e(  9 -  9) =     17.17092  eV     1   --> B_1  D_3  S_3  
     e( 10 - 10) =     21.90451  eV     1   --> A_2  D_2  S_2  
     e( 11 - 11) =     22.57682  eV     1   --> A_1  D_1  S_1  
     e( 12 - 12) =     23.24551  eV     1   --> B_1  D_3  S_3  
     e( 13 - 13) =     24.26484  eV     1   --> B_2  D_4  S_4  
     e( 14 - 14) =     28.85144  eV     1   --> A_1  D_1  S_1  
     e( 15 - 15) =     28.85838  eV     1   --> B_2  D_4  S_4  
     e( 16 - 16) =     30.92545  eV     1   --> A_1  D_1  S_1  
     e( 17 - 17) =     31.05931  eV     1   --> B_1  D_3  S_3  
     e( 18 - 18) =     32.76853  eV     1   --> A_1  D_1  S_1  
     e( 19 - 19) =     41.34381  eV     1   --> A_2  D_2  S_2  
     e( 20 - 20) =     43.28368  eV     1   --> A_1  D_1  S_1  

 **************************************************************************

 **************************************************************************

                    xk=(   0.00000,   0.25981,   0.00000  )

     Band symmetry, C_2v (mm2)  point group:

     e(  1 -  1) =    -39.72174  eV     1   --> A_1  D_1  S_1  
     e(  2 -  2) =    -13.94583  eV     1   --> B_2  D_4  S_4  
     e(  3 -  3) =    -13.91306  eV     1   --> A_1  D_1  S_1  
     e(  4 -  4) =    -13.61594  eV     1   --> B_1  D_3  S_3  
     e(  5 -  5) =      7.53640  eV     1   --> A_1  D_1  S_1  
     e(  6 -  6) =     14.88256  eV     1   --> A_1  D_1  S_1  
     e(  7 -  7) =     16.73152  eV     1   --> B_2  D_4  S_4  
     e(  8 -  8) =     17.01469  eV     1   --> A_1  D_1  S_1  
     e(  9 -  9) =     17.19501  eV     1   --> B_1  D_3  S_3  
     e( 10 - 10) =     21.86597  eV     1   --> A_2  D_2  S_2  
     e( 11 - 11) =     22.51724  eV     1   --> A_1  D_1  S_1  
     e( 12 - 12) =     23.20738  eV     1   --> B_1  D_3  S_3  
     e( 13 - 13) =     24.36143  eV     1   --> B_2  D_4  S_4  
     e( 14 - 14) =     28.80960  eV     1   --> B_2  D_4  S_4  
     e( 15 - 15) =     28.92163  eV     1   --> A_1  D_1  S_1  
     e( 16 - 16) =     31.23838  eV     1   --> A_1  D_1  S_1  
     e( 17 - 17) =     31.40251  eV     1   --> B_1  D_3  S_3  
     e( 18 - 18) =     32.76540  eV     1   --> A_1  D_1  S_1  
     e( 19 - 19) =     41.55948  eV     1   --> A_2  D_2  S_2  
     e( 20 - 20) =     43.18084  eV     1   --> A_1  D_1  S_1  

 **************************************************************************

 **************************************************************************

                    xk=(   0.00000,   0.27424,   0.00000  )

     Band symmetry, C_2v (mm2)  point group:

     e(  1 -  1) =    -39.71722  eV     1   --> A_1  D_1  S_1  
     e(  2 -  2) =    -13.94772  eV     1   --> A_1  D_1  S_1  
     e(  3 -  3) =    -13.93971  eV     1   --> B_2  D_4  S_4  
     e(  4 -  4) =    -13.62402  eV     1   --> B_1  D_3  S_3  
     e(  5 -  5) =      7.65033  eV     1   --> A_1  D_1  S_1  
     e(  6 -  6) =     14.71651  eV     1   --> A_1  D_1  S_1  
     e(  7 -  7) =     16.63102  eV     1   --> B_2  D_4  S_4  
     e(  8 -  8) =     17.02426  eV     1   --> A_1  D_1  S_1  
     e(  9 -  9) =     17.21687  eV     1   --> B_1  D_3  S_3  
     e( 10 - 10) =     21.82732  eV     1   --> A_2  D_2  S_2  
     e( 11 - 11) =     22.47976  eV     1   --> A_1  D_1  S_1  
     e( 12 - 12) =     23.18044  eV     1   --> B_1  D_3  S_3  
     e( 13 - 13) =     24.43869  eV     1   --> B_2  D_4  S_4  
     e( 14 - 14) =     28.78899  eV     1   --> B_2  D_4  S_4  
     e( 15 - 15) =     28.98282  eV     1   --> A_1  D_1  S_1  
     e( 16 - 16) =     31.55699  eV     1   --> A_1  D_1  S_1  
     e( 17 - 17) =     31.75101  eV     1   --> B_1  D_3  S_3  
     e( 18 - 18) =     32.74864  eV     1   --> A_1  D_1  S_1  
     e( 19 - 19) =     41.78332  eV     1   --> A_2  D_2  S_2  
     e( 20 - 20) =     43.05146  eV     1   --> A_1  D_1  S_1  

 **************************************************************************

 **************************************************************************

                    xk=(   0.00000,   0.28868,   0.00000  )

     Band symmetry, C_2v (mm2)  point group:

     e(  1 -  1) =    -39.71266  eV     1   --> A_1  D_1  S_1  
     e(  2 -  2) =    -13.98244  eV     1   --> A_1  D_1  S_1  
     e(  3 -  3) =    -13.93356  eV     1   --> B_2  D_4  S_4  
     e(  4 -  4) =    -13.63212  eV     1   --> B_1  D_3  S_3  
     e(  5 -  5) =      7.76872  eV     1   --> A_1  D_1  S_1  
     e(  6 -  6) =     14.54927  eV     1   --> A_1  D_1  S_1  
     e(  7 -  7) =     16.53404  eV     1   --> B_2  D_4  S_4  
     e(  8 -  8) =     17.02466  eV     1   --> A_1  D_1  S_1  
     e(  9 -  9) =     17.23647  eV     1   --> B_1  D_3  S_3  
     e( 10 - 10) =     21.78882  eV     1   --> A_2  D_2  S_2  
     e( 11 - 11) =     22.46594  eV     1   --> A_1  D_1  S_1  
     e( 12 - 12) =     23.16455  eV     1   --> B_1  D_3  S_3  
     e( 13 - 13) =     24.49542  eV     1   --> B_2  D_4  S_4  
     e( 14 - 14) =     28.79790  eV     1   --> B_2  D_4  S_4  
     e( 15 - 15) =     29.03691  eV     1   --> A_1  D_1  S_1  
     e( 16 - 16) =     31.87982  eV     1   --> A_1  D_1  S_1  
     e( 17 - 17) =     32.10514  eV     1   --> B_1  D_3  S_3  
     e( 18 - 18) =     32.71832  eV     1   --> A_1  D_1  S_1  
     e( 19 - 19) =     42.01464  eV     1   --> A_2  D_2  S_2  
     e( 20 - 20) =     42.90056  eV     1   --> A_1  D_1  S_1  

 **************************************************************************

 **************************************************************************

                    xk=(   0.00000,   0.30311,   0.00000  )

     Band symmetry, C_2v (mm2)  point group:

     e(  1 -  1) =    -39.70810  eV     1   --> A_1  D_1  S_1  
     e(  2 -  2) =    -14.01701  eV     1   --> A_1  D_1  S_1  
     e(  3 -  3) =    -13.92739  eV     1   --> B_2  D_4  S_4  
     e(  4 -  4) =    -13.64022  eV     1   --> B_1  D_3  S_3  
     e(  5 -  5) =      7.89087  eV     1   --> A_1  D_1  S_1  
     e(  6 -  6) =     14.38036  eV     1   --> A_1  D_1  S_1  
     e(  7 -  7) =     16.44006  eV     1   --> B_2  D_4  S_4  
     e(  8 -  8) =     17.01557  eV     1   --> A_1  D_1  S_1  
     e(  9 -  9) =     17.25326  eV     1   --> B_1  D_3  S_3  
     e( 10 - 10) =     21.75068  eV     1   --> A_2  D_2  S_2  
     e( 11 - 11) =     22.47481  eV     1   --> A_1  D_1  S_1  
     e( 12 - 12) =     23.15931  eV     1   --> B_1  D_3  S_3  
     e( 13 - 13) =     24.53062  eV     1   --> B_2  D_4  S_4  
     e( 14 - 14) =     28.83600  eV     1   --> B_2  D_4  S_4  
     e( 15 - 15) =     29.08281  eV     1   --> A_1  D_1  S_1  
     e( 16 - 16) =     32.20259  eV     1   --> A_1  D_1  S_1  
     e( 17 - 17) =     32.46247  eV     1   --> B_1  D_3  S_3  
     e( 18 - 18) =     32.67486  eV     1   --> A_1  D_1  S_1  
     e( 19 - 19) =     42.25256  eV     1   --> A_2  D_2  S_2  
     e( 20 - 20) =     42.72888  eV     1   --> A_1  D_1  S_1  

 **************************************************************************

 **************************************************************************

                    xk=(   0.00000,   0.31754,   0.00000  )

     Band symmetry, C_2v (mm2)  point group:

     e(  1 -  1) =    -39.70357  eV     1   --> A_1  D_1  S_1  
     e(  2 -  2) =    -14.05121  eV     1   --> A_1  D_1  S_1  
     e(  3 -  3) =    -13.92126  eV     1   --> B_2  D_4  S_4  
     e(  4 -  4) =    -13.64826  eV     1   --> B_1  D_3  S_3  
     e(  5 -  5) =      8.01725  eV     1   --> A_1  D_1  S_1  
     e(  6 -  6) =     14.21079  eV     1   --> A_1  D_1  S_1  
     e(  7 -  7) =     16.35037  eV     1   --> B_2  D_4  S_4  
     e(  8 -  8) =     16.99726  eV     1   --> A_1  D_1  S_1  
     e(  9 -  9) =     17.26660  eV     1   --> B_1  D_3  S_3  
     e( 10 - 10) =     21.71312  eV     1   --> A_2  D_2  S_2  
     e( 11 - 11) =     22.50704  eV     1   --> A_1  D_1  S_1  
     e( 12 - 12) =     23.16396  eV     1   --> B_1  D_3  S_3  
     e( 13 - 13) =     24.54545  eV     1   --> B_2  D_4  S_4  
     e( 14 - 14) =     28.90238  eV     1   --> B_2  D_4  S_4  
     e( 15 - 15) =     29.12182  eV     1   --> A_1  D_1  S_1  
     e( 16 - 16) =     32.48839  eV     1   --> A_1  D_1  S_1  
     e( 17 - 17) =     32.65624  eV     1   --> A_1  D_1  S_1  
     e( 18 - 18) =     32.82401  eV     1   --> B_1  D_3  S_3  
     e( 19 - 19) =     42.49630  eV     1   --> A_2  D_2  S_2  
     e( 20 - 20) =     42.54708  eV     1   --> A_1  D_1  S_1  

 **************************************************************************

 **************************************************************************

                    xk=(   0.00000,   0.33198,   0.00000  )

     Band symmetry, C_2v (mm2)  point group:

     e(  1 -  1) =    -39.69908  eV     1   --> A_1  D_1  S_1  
     e(  2 -  2) =    -14.08485  eV     1   --> A_1  D_1  S_1  
     e(  3 -  3) =    -13.91519  eV     1   --> B_2  D_4  S_4  
     e(  4 -  4) =    -13.65618  eV     1   --> B_1  D_3  S_3  
     e(  5 -  5) =      8.14732  eV     1   --> A_1  D_1  S_1  
     e(  6 -  6) =     14.04122  eV     1   --> A_1  D_1  S_1  
     e(  7 -  7) =     16.26487  eV     1   --> B_2  D_4  S_4  
     e(  8 -  8) =     16.97027  eV     1   --> A_1  D_1  S_1  
     e(  9 -  9) =     17.27803  eV     1   --> B_1  D_3  S_3  
     e( 10 - 10) =     21.67638  eV     1   --> A_2  D_2  S_2  
     e( 11 - 11) =     22.56272  eV     1   --> A_1  D_1  S_1  
     e( 12 - 12) =     23.17860  eV     1   --> B_1  D_3  S_3  
     e( 13 - 13) =     24.54247  eV     1   --> B_2  D_4  S_4  
     e( 14 - 14) =     28.99606  eV     1   --> B_2  D_4  S_4  
     e( 15 - 15) =     29.15304  eV     1   --> A_1  D_1  S_1  
     e( 16 - 16) =     32.49849  eV     1   --> A_1  D_1  S_1  
     e( 17 - 17) =     32.89927  eV     1   --> A_1  D_1  S_1  
     e( 18 - 18) =     33.18901  eV     1   --> B_1  D_3  S_3  
     e( 19 - 19) =     42.35844  eV     1   --> A_1  D_1  S_1  
     e( 20 - 20) =     42.74545  eV     1   --> A_2  D_2  S_2  

 **************************************************************************

 **************************************************************************

                    xk=(   0.00000,   0.34641,   0.00000  )

     Band symmetry, C_2v (mm2)  point group:

     e(  1 -  1) =    -39.69467  eV     1   --> A_1  D_1  S_1  
     e(  2 -  2) =    -14.11773  eV     1   --> A_1  D_1  S_1  
     e(  3 -  3) =    -13.90923  eV     1   --> B_2  D_4  S_4  
     e(  4 -  4) =    -13.66394  eV     1   --> B_1  D_3  S_3  
     e(  5 -  5) =      8.28081  eV     1   --> A_1  D_1  S_1  
     e(  6 -  6) =     13.87008  eV     1   --> A_1  D_1  S_1  
     e(  7 -  7) =     16.18356  eV     1   --> B_2  D_4  S_4  
     e(  8 -  8) =     16.93544  eV     1   --> A_1  D_1  S_1  
     e(  9 -  9) =     17.28682  eV     1   --> B_1  D_3  S_3  
     e( 10 - 10) =     21.64065  eV     1   --> A_2  D_2  S_2  
     e( 11 - 11) =     22.63916  eV     1   --> A_1  D_1  S_1  
     e( 12 - 12) =     23.20204  eV     1   --> B_1  D_3  S_3  
     e( 13 - 13) =     24.52360  eV     1   --> B_2  D_4  S_4  
     e( 14 - 14) =     29.11195  eV     1   --> B_2  D_4  S_4  
     e( 15 - 15) =     29.17683  eV     1   --> A_1  D_1  S_1  
     e( 16 - 16) =     32.41087  eV     1   --> A_1  D_1  S_1  
     e( 17 - 17) =     33.22500  eV     1   --> A_1  D_1  S_1  
     e( 18 - 18) =     33.55640  eV     1   --> B_1  D_3  S_3  
     e( 19 - 19) =     42.16654  eV     1   --> A_1  D_1  S_1  
     e( 20 - 20) =     42.61784  eV     1   --> B_1  D_3  S_3  

 **************************************************************************

 **************************************************************************

                    xk=(   0.00000,   0.36084,   0.00000  )

     Band symmetry, C_2v (mm2)  point group:

     e(  1 -  1) =    -39.69038  eV     1   --> A_1  D_1  S_1  
     e(  2 -  2) =    -14.14964  eV     1   --> A_1  D_1  S_1  
     e(  3 -  3) =    -13.90342  eV     1   --> B_2  D_4  S_4  
     e(  4 -  4) =    -13.67149  eV     1   --> B_1  D_3  S_3  
     e(  5 -  5) =      8.41747  eV     1   --> A_1  D_1  S_1  
     e(  6 -  6) =     13.69867  eV     1   --> A_1  D_1  S_1  
     e(  7 -  7) =     16.10663  eV     1   --> B_2  D_4  S_4  
     e(  8 -  8) =     16.89396  eV     1   --> A_1  D_1  S_1  
     e(  9 -  9) =     17.29313  eV     1   --> B_1  D_3  S_3  
     e( 10 - 10) =     21.60612  eV     1   --> A_2  D_2  S_2  
     e( 11 - 11) =     22.73577  eV     1   --> A_1  D_1  S_1  
     e( 12 - 12) =     23.23336  eV     1   --> B_1  D_3  S_3  
     e( 13 - 13) =     24.49177  eV     1   --> B_2  D_4  S_4  
     e( 14 - 14) =     29.19304  eV     1   --> A_1  D_1  S_1  
     e( 15 - 15) =     29.24731  eV     1   --> B_2  D_4  S_4  
     e( 16 - 16) =     32.30291  eV     1   --> A_1  D_1  S_1  
     e( 17 - 17) =     33.55619  eV     1   --> A_1  D_1  S_1  
     e( 18 - 18) =     33.92563  eV     1   --> B_1  D_3  S_3  
     e( 19 - 19) =     41.97473  eV     1   --> A_1  D_1  S_1  
     e( 20 - 20) =     42.24025  eV     1   --> B_1  D_3  S_3  

 **************************************************************************

 **************************************************************************

                    xk=(   0.00000,   0.37528,   0.00000  )

     Band symmetry, C_2v (mm2)  point group:

     e(  1 -  1) =    -39.68622  eV     1   --> A_1  D_1  S_1  
     e(  2 -  2) =    -14.18042  eV     1   --> A_1  D_1  S_1  
     e(  3 -  3) =    -13.89779  eV     1   --> B_2  D_4  S_4  
     e(  4 -  4) =    -13.67880  eV     1   --> B_1  D_3  S_3  
     e(  5 -  5) =      8.55610  eV     1   --> A_1  D_1  S_1  
     e(  6 -  6) =     13.52713  eV     1   --> A_1  D_1  S_1  
     e(  7 -  7) =     16.03407  eV     1   --> B_2  D_4  S_4  
     e(  8 -  8) =     16.84713  eV     1   --> A_1  D_1  S_1  
     e(  9 -  9) =     17.29687  eV     1   --> B_1  D_3  S_3  
     e( 10 - 10) =     21.57298  eV     1   --> A_2  D_2  S_2  
     e( 11 - 11) =     22.85073  eV     1   --> A_1  D_1  S_1  
     e( 12 - 12) =     23.27126  eV     1   --> B_1  D_3  S_3  
     e( 13 - 13) =     24.44994  eV     1   --> B_2  D_4  S_4  
     e( 14 - 14) =     29.20088  eV     1   --> A_1  D_1  S_1  
     e( 15 - 15) =     29.39804  eV     1   --> B_2  D_4  S_4  
     e( 16 - 16) =     32.17938  eV     1   --> A_1  D_1  S_1  
     e( 17 - 17) =     33.88666  eV     1   --> A_1  D_1  S_1  
     e( 18 - 18) =     34.29333  eV     1   --> B_1  D_3  S_3  
     e( 19 - 19) =     41.78231  eV     1   --> A_1  D_1  S_1  
     e( 20 - 20) =     41.87875  eV     1   --> B_1  D_3  S_3  

 **************************************************************************

 **************************************************************************

                    xk=(   0.00000,   0.38971,   0.00000  )

     Band symmetry, C_2v (mm2)  point group:

     e(  1 -  1) =    -39.68221  eV     1   --> A_1  D_1  S_1  
     e(  2 -  2) =    -14.20988  eV     1   --> A_1  D_1  S_1  
     e(  3 -  3) =    -13.89237  eV     1   --> B_2  D_4  S_4  
     e(  4 -  4) =    -13.68580  eV     1   --> B_1  D_3  S_3  
     e(  5 -  5) =      8.69822  eV     1   --> A_1  D_1  S_1  
     e(  6 -  6) =     13.35593  eV     1   --> A_1  D_1  S_1  
     e(  7 -  7) =     15.96630  eV     1   --> B_2  D_4  S_4  
     e(  8 -  8) =     16.79651  eV     1   --> A_1  D_1  S_1  
     e(  9 -  9) =     17.29912  eV     1   --> B_1  D_3  S_3  
     e( 10 - 10) =     21.54139  eV     1   --> A_2  D_2  S_2  
     e( 11 - 11) =     22.98205  eV     1   --> A_1  D_1  S_1  
     e( 12 - 12) =     23.31521  eV     1   --> B_1  D_3  S_3  
     e( 13 - 13) =     24.40250  eV     1   --> B_2  D_4  S_4  
     e( 14 - 14) =     29.20132  eV     1   --> A_1  D_1  S_1  
     e( 15 - 15) =     29.56118  eV     1   --> B_2  D_4  S_4  
     e( 16 - 16) =     32.04700  eV     1   --> A_1  D_1  S_1  
     e( 17 - 17) =     34.21511  eV     1   --> A_1  D_1  S_1  
     e( 18 - 18) =     34.66320  eV     1   --> B_1  D_3  S_3  
     e( 19 - 19) =     41.53501  eV     1   --> B_1  D_3  S_3  
     e( 20 - 20) =     41.59644  eV     1   --> A_1  D_1  S_1  

 **************************************************************************

 **************************************************************************

                    xk=(   0.00000,   0.40415,   0.00000  )

     Band symmetry, C_2v (mm2)  point group:

     e(  1 -  1) =    -39.67840  eV     1   --> A_1  D_1  S_1  
     e(  2 -  2) =    -14.23785  eV     1   --> A_1  D_1  S_1  
     e(  3 -  3) =    -13.88720  eV     1   --> B_2  D_4  S_4  
     e(  4 -  4) =    -13.69247  eV     1   --> B_1  D_3  S_3  
     e(  5 -  5) =      8.84248  eV     1   --> A_1  D_1  S_1  
     e(  6 -  6) =     13.18506  eV     1   --> A_1  D_1  S_1  
     e(  7 -  7) =     15.90322  eV     1   --> B_2  D_4  S_4  
     e(  8 -  8) =     16.74352  eV     1   --> A_1  D_1  S_1  
     e(  9 -  9) =     17.29929  eV     1   --> B_1  D_3  S_3  
     e( 10 - 10) =     21.51151  eV     1   --> A_2  D_2  S_2  
     e( 11 - 11) =     23.12741  eV     1   --> A_1  D_1  S_1  
     e( 12 - 12) =     23.36353  eV     1   --> B_1  D_3  S_3  
     e( 13 - 13) =     24.34915  eV     1   --> B_2  D_4  S_4  
     e( 14 - 14) =     29.19187  eV     1   --> A_1  D_1  S_1  
     e( 15 - 15) =     29.73177  eV     1   --> B_2  D_4  S_4  
     e( 16 - 16) =     31.90664  eV     1   --> A_1  D_1  S_1  
     e( 17 - 17) =     34.53946  eV     1   --> A_1  D_1  S_1  
     e( 18 - 18) =     35.03163  eV     1   --> B_1  D_3  S_3  
     e( 19 - 19) =     41.20955  eV     1   --> B_1  D_3  S_3  
     e( 20 - 20) =     41.41497  eV     1   --> A_1  D_1  S_1  

 **************************************************************************

 **************************************************************************

                    xk=(   0.00000,   0.41858,   0.00000  )

     Band symmetry, C_2v (mm2)  point group:

     e(  1 -  1) =    -39.67479  eV     1   --> A_1  D_1  S_1  
     e(  2 -  2) =    -14.26418  eV     1   --> A_1  D_1  S_1  
     e(  3 -  3) =    -13.88231  eV     1   --> B_2  D_4  S_4  
     e(  4 -  4) =    -13.69876  eV     1   --> B_1  D_3  S_3  
     e(  5 -  5) =      8.98852  eV     1   --> A_1  D_1  S_1  
     e(  6 -  6) =     13.01495  eV     1   --> A_1  D_1  S_1  
     e(  7 -  7) =     15.84494  eV     1   --> B_2  D_4  S_4  
     e(  8 -  8) =     16.68956  eV     1   --> A_1  D_1  S_1  
     e(  9 -  9) =     17.29798  eV     1   --> B_1  D_3  S_3  
     e( 10 - 10) =     21.48348  eV     1   --> A_2  D_2  S_2  
     e( 11 - 11) =     23.28430  eV     1   --> A_1  D_1  S_1  
     e( 12 - 12) =     23.41500  eV     1   --> B_1  D_3  S_3  
     e( 13 - 13) =     24.29358  eV     1   --> B_2  D_4  S_4  
     e( 14 - 14) =     29.17260  eV     1   --> A_1  D_1  S_1  
     e( 15 - 15) =     29.90666  eV     1   --> B_2  D_4  S_4  
     e( 16 - 16) =     31.76211  eV     1   --> A_1  D_1  S_1  
     e( 17 - 17) =     34.85811  eV     1   --> A_1  D_1  S_1  
     e( 18 - 18) =     35.39706  eV     1   --> B_1  D_3  S_3  
     e( 19 - 19) =     40.90370  eV     1   --> B_1  D_3  S_3  
     e( 20 - 20) =     41.23822  eV     1   --> A_1  D_1  S_1  

 **************************************************************************

 **************************************************************************

                    xk=(   0.00000,   0.43301,   0.00000  )

     Band symmetry, C_2v (mm2)  point group:

     e(  1 -  1) =    -39.67141  eV     1   --> A_1  D_1  S_1  
     e(  2 -  2) =    -14.28872  eV     1   --> A_1  D_1  S_1  
     e(  3 -  3) =    -13.87774  eV     1   --> B_2  D_4  S_4  
     e(  4 -  4) =    -13.70463  eV     1   --> B_1  D_3  S_3  
     e(  5 -  5) =      9.13558  eV     1   --> A_1  D_1  S_1  
     e(  6 -  6) =     12.84613  eV     1   --> A_1  D_1  S_1  
     e(  7 -  7) =     15.79152  eV     1   --> B_2  D_4  S_4  
     e(  8 -  8) =     16.63597  eV     1   --> A_1  D_1  S_1  
     e(  9 -  9) =     17.29607  eV     1   --> B_1  D_3  S_3  
     e( 10 - 10) =     21.45745  eV     1   --> A_2  D_2  S_2  
     e( 11 - 11) =     23.45004  eV     1   --> A_1  D_1  S_1  
     e( 12 - 12) =     23.46832  eV     1   --> B_1  D_3  S_3  
     e( 13 - 13) =     24.23730  eV     1   --> B_2  D_4  S_4  
     e( 14 - 14) =     29.14267  eV     1   --> A_1  D_1  S_1  
     e( 15 - 15) =     30.08203  eV     1   --> B_2  D_4  S_4  
     e( 16 - 16) =     31.61860  eV     1   --> A_1  D_1  S_1  
     e( 17 - 17) =     35.16826  eV     1   --> A_1  D_1  S_1  
     e( 18 - 18) =     35.75758  eV     1   --> B_1  D_3  S_3  
     e( 19 - 19) =     40.61849  eV     1   --> B_1  D_3  S_3  
     e( 20 - 20) =     41.06523  eV     1   --> A_1  D_1  S_1  

 **************************************************************************

 **************************************************************************

                    xk=(   0.00000,   0.44745,   0.00000  )

     Band symmetry, C_2v (mm2)  point group:

     e(  1 -  1) =    -39.66828  eV     1   --> A_1  D_1  S_1  
     e(  2 -  2) =    -14.31135  eV     1   --> A_1  D_1  S_1  
     e(  3 -  3) =    -13.87351  eV     1   --> B_2  D_4  S_4  
     e(  4 -  4) =    -13.71005  eV     1   --> B_1  D_3  S_3  
     e(  5 -  5) =      9.28355  eV     1   --> A_1  D_1  S_1  
     e(  6 -  6) =     12.67883  eV     1   --> A_1  D_1  S_1  
     e(  7 -  7) =     15.74304  eV     1   --> B_2  D_4  S_4  
     e(  8 -  8) =     16.58400  eV     1   --> A_1  D_1  S_1  
     e(  9 -  9) =     17.29271  eV     1   --> B_1  D_3  S_3  
     e( 10 - 10) =     21.43354  eV     1   --> A_2  D_2  S_2  
     e( 11 - 11) =     23.52198  eV     1   --> B_1  D_3  S_3  
     e( 12 - 12) =     23.62155  eV     1   --> A_1  D_1  S_1  
     e( 13 - 13) =     24.18276  eV     1   --> B_2  D_4  S_4  
     e( 14 - 14) =     29.10156  eV     1   --> A_1  D_1  S_1  
     e( 15 - 15) =     30.25507  eV     1   --> B_2  D_4  S_4  
     e( 16 - 16) =     31.47744  eV     1   --> A_1  D_1  S_1  
     e( 17 - 17) =     35.47020  eV     1   --> A_1  D_1  S_1  
     e( 18 - 18) =     36.11077  eV     1   --> B_1  D_3  S_3  
     e( 19 - 19) =     40.35515  eV     1   --> B_1  D_3  S_3  
     e( 20 - 20) =     40.89787  eV     1   --> A_1  D_1  S_1  

 **************************************************************************

 **************************************************************************

                    xk=(   0.00000,   0.46188,   0.00000  )

     Band symmetry, C_2v (mm2)  point group:

     e(  1 -  1) =    -39.66543  eV     1   --> A_1  D_1  S_1  
     e(  2 -  2) =    -14.33193  eV     1   --> A_1  D_1  S_1  
     e(  3 -  3) =    -13.86965  eV     1   --> B_2  D_4  S_4  
     e(  4 -  4) =    -13.71499  eV     1   --> B_1  D_3  S_3  
     e(  5 -  5) =      9.43138  eV     1   --> A_1  D_1  S_1  
     e(  6 -  6) =     12.51394  eV     1   --> A_1  D_1  S_1  
     e(  7 -  7) =     15.69954  eV     1   --> B_2  D_4  S_4  
     e(  8 -  8) =     16.53474  eV     1   --> A_1  D_1  S_1  
     e(  9 -  9) =     17.28880  eV     1   --> B_1  D_3  S_3  
     e( 10 - 10) =     21.41184  eV     1   --> A_2  D_2  S_2  
     e( 11 - 11) =     23.57466  eV     1   --> B_1  D_3  S_3  
     e( 12 - 12) =     23.79551  eV     1   --> A_1  D_1  S_1  
     e( 13 - 13) =     24.13097  eV     1   --> B_2  D_4  S_4  
     e( 14 - 14) =     29.04931  eV     1   --> A_1  D_1  S_1  
     e( 15 - 15) =     30.42208  eV     1   --> B_2  D_4  S_4  
     e( 16 - 16) =     31.34391  eV     1   --> A_1  D_1  S_1  
     e( 17 - 17) =     35.76061  eV     1   --> A_1  D_1  S_1  
     e( 18 - 18) =     36.45367  eV     1   --> B_1  D_3  S_3  
     e( 19 - 19) =     40.11466  eV     1   --> B_1  D_3  S_3  
     e( 20 - 20) =     40.73534  eV     1   --> A_1  D_1  S_1  

 **************************************************************************

 **************************************************************************

                    xk=(   0.00000,   0.47631,   0.00000  )

     Band symmetry, C_2v (mm2)  point group:

     e(  1 -  1) =    -39.66287  eV     1   --> A_1  D_1  S_1  
     e(  2 -  2) =    -14.35035  eV     1   --> A_1  D_1  S_1  
     e(  3 -  3) =    -13.86618  eV     1   --> B_2  D_4  S_4  
     e(  4 -  4) =    -13.71942  eV     1   --> B_1  D_3  S_3  
     e(  5 -  5) =      9.57797  eV     1   --> A_1  D_1  S_1  
     e(  6 -  6) =     12.35246  eV     1   --> A_1  D_1  S_1  
     e(  7 -  7) =     15.66107  eV     1   --> B_2  D_4  S_4  
     e(  8 -  8) =     16.48915  eV     1   --> A_1  D_1  S_1  
     e(  9 -  9) =     17.28461  eV     1   --> B_1  D_3  S_3  
     e( 10 - 10) =     21.39247  eV     1   --> A_2  D_2  S_2  
     e( 11 - 11) =     23.62501  eV     1   --> B_1  D_3  S_3  
     e( 12 - 12) =     23.96817  eV     1   --> A_1  D_1  S_1  
     e( 13 - 13) =     24.08306  eV     1   --> B_2  D_4  S_4  
     e( 14 - 14) =     28.98666  eV     1   --> A_1  D_1  S_1  
     e( 15 - 15) =     30.57977  eV     1   --> B_2  D_4  S_4  
     e( 16 - 16) =     31.22162  eV     1   --> A_1  D_1  S_1  
     e( 17 - 17) =     36.03681  eV     1   --> A_1  D_1  S_1  
     e( 18 - 18) =     36.78257  eV     1   --> B_1  D_3  S_3  
     e( 19 - 19) =     39.89796  eV     1   --> B_1  D_3  S_3  
     e( 20 - 20) =     40.57818  eV     1   --> A_1  D_1  S_1  

 **************************************************************************

 **************************************************************************

                    xk=(   0.00000,   0.49075,   0.00000  )

     Band symmetry, C_2v (mm2)  point group:

     e(  1 -  1) =    -39.66062  eV     1   --> A_1  D_1  S_1  
     e(  2 -  2) =    -14.36652  eV     1   --> A_1  D_1  S_1  
     e(  3 -  3) =    -13.86313  eV     1   --> B_2  D_4  S_4  
     e(  4 -  4) =    -13.72331  eV     1   --> B_1  D_3  S_3  
     e(  5 -  5) =      9.72182  eV     1   --> A_1  D_1  S_1  
     e(  6 -  6) =     12.19585  eV     1   --> A_1  D_1  S_1  
     e(  7 -  7) =     15.62767  eV     1   --> B_2  D_4  S_4  
     e(  8 -  8) =     16.44806  eV     1   --> A_1  D_1  S_1  
     e(  9 -  9) =     17.28042  eV     1   --> B_1  D_3  S_3  
     e( 10 - 10) =     21.37551  eV     1   --> A_2  D_2  S_2  
     e( 11 - 11) =     23.67171  eV     1   --> B_1  D_3  S_3  
     e( 12 - 12) =     24.03993  eV     1   --> B_2  D_4  S_4  
     e( 13 - 13) =     24.13524  eV     1   --> A_1  D_1  S_1  
     e( 14 - 14) =     28.91560  eV     1   --> A_1  D_1  S_1  
     e( 15 - 15) =     30.72489  eV     1   --> B_2  D_4  S_4  
     e( 16 - 16) =     31.11350  eV     1   --> A_1  D_1  S_1  
     e( 17 - 17) =     36.29552  eV     1   --> A_1  D_1  S_1  
     e( 18 - 18) =     37.09283  eV     1   --> B_1  D_3  S_3  
     e( 19 - 19) =     39.70589  eV     1   --> B_1  D_3  S_3  
     e( 20 - 20) =     40.42760  eV     1   --> A_1  D_1  S_1  

 **************************************************************************

 **************************************************************************

                    xk=(   0.00000,   0.50518,   0.00000  )

     Band symmetry, C_2v (mm2)  point group:

     e(  1 -  1) =    -39.65869  eV     1   --> A_1  D_1  S_1  
     e(  2 -  2) =    -14.38035  eV     1   --> A_1  D_1  S_1  
     e(  3 -  3) =    -13.86051  eV     1   --> B_2  D_4  S_4  
     e(  4 -  4) =    -13.72665  eV     1   --> B_1  D_3  S_3  
     e(  5 -  5) =      9.86067  eV     1   --> A_1  D_1  S_1  
     e(  6 -  6) =     12.04629  eV     1   --> A_1  D_1  S_1  
     e(  7 -  7) =     15.59936  eV     1   --> B_2  D_4  S_4  
     e(  8 -  8) =     16.41217  eV     1   --> A_1  D_1  S_1  
     e(  9 -  9) =     17.27646  eV     1   --> B_1  D_3  S_3  
     e( 10 - 10) =     21.36103  eV     1   --> A_2  D_2  S_2  
     e( 11 - 11) =     23.71355  eV     1   --> B_1  D_3  S_3  
     e( 12 - 12) =     24.00233  eV     1   --> B_2  D_4  S_4  
     e( 13 - 13) =     24.29180  eV     1   --> A_1  D_1  S_1  
     e( 14 - 14) =     28.83963  eV     1   --> A_1  D_1  S_1  
     e( 15 - 15) =     30.85430  eV     1   --> B_2  D_4  S_4  
     e( 16 - 16) =     31.02154  eV     1   --> A_1  D_1  S_1  
     e( 17 - 17) =     36.53254  eV     1   --> A_1  D_1  S_1  
     e( 18 - 18) =     37.37875  eV     1   --> B_1  D_3  S_3  
     e( 19 - 19) =     39.53916  eV     1   --> B_1  D_3  S_3  
     e( 20 - 20) =     40.28583  eV     1   --> A_1  D_1  S_1  

 **************************************************************************

 **************************************************************************

                    xk=(   0.00000,   0.51962,   0.00000  )

     Band symmetry, C_2v (mm2)  point group:

     e(  1 -  1) =    -39.65709  eV     1   --> A_1  D_1  S_1  
     e(  2 -  2) =    -14.39177  eV     1   --> A_1  D_1  S_1  
     e(  3 -  3) =    -13.85835  eV     1   --> B_2  D_4  S_4  
     e(  4 -  4) =    -13.72940  eV     1   --> B_1  D_3  S_3  
     e(  5 -  5) =      9.99106  eV     1   --> A_1  D_1  S_1  
     e(  6 -  6) =     11.90734  eV     1   --> A_1  D_1  S_1  
     e(  7 -  7) =     15.57632  eV     1   --> B_2  D_4  S_4  
     e(  8 -  8) =     16.38208  eV     1   --> A_1  D_1  S_1  
     e(  9 -  9) =     17.27311  eV     1   --> B_1  D_3  S_3  
     e( 10 - 10) =     21.34910  eV     1   --> A_2  D_2  S_2  
     e( 11 - 11) =     23.74949  eV     1   --> B_1  D_3  S_3  
     e( 12 - 12) =     23.97122  eV     1   --> B_2  D_4  S_4  
     e( 13 - 13) =     24.43237  eV     1   --> A_1  D_1  S_1  
     e( 14 - 14) =     28.76372  eV     1   --> A_1  D_1  S_1  
     e( 15 - 15) =     30.94713  eV     1   --> A_1  D_1  S_1  
     e( 16 - 16) =     30.96573  eV     1   --> B_2  D_4  S_4  
     e( 17 - 17) =     36.74218  eV     1   --> A_1  D_1  S_1  
     e( 18 - 18) =     37.63542  eV     1   --> B_1  D_3  S_3  
     e( 19 - 19) =     39.39840  eV     1   --> B_1  D_3  S_3  
     e( 20 - 20) =     40.15525  eV     1   --> A_1  D_1  S_1  

 **************************************************************************

 **************************************************************************

                    xk=(   0.00000,   0.53405,   0.00000  )

     Band symmetry, C_2v (mm2)  point group:

     e(  1 -  1) =    -39.65584  eV     1   --> A_1  D_1  S_1  
     e(  2 -  2) =    -14.40071  eV     1   --> A_1  D_1  S_1  
     e(  3 -  3) =    -13.85665  eV     1   --> B_2  D_4  S_4  
     e(  4 -  4) =    -13.73156  eV     1   --> B_1  D_3  S_3  
     e(  5 -  5) =     10.10804  eV     1   --> A_1  D_1  S_1  
     e(  6 -  6) =     11.78363  eV     1   --> A_1  D_1  S_1  
     e(  7 -  7) =     15.55827  eV     1   --> B_2  D_4  S_4  
     e(  8 -  8) =     16.35820  eV     1   --> A_1  D_1  S_1  
     e(  9 -  9) =     17.27019  eV     1   --> B_1  D_3  S_3  
     e( 10 - 10) =     21.33977  eV     1   --> A_2  D_2  S_2  
     e( 11 - 11) =     23.77844  eV     1   --> B_1  D_3  S_3  
     e( 12 - 12) =     23.94628  eV     1   --> B_2  D_4  S_4  
     e( 13 - 13) =     24.55086  eV     1   --> A_1  D_1  S_1  
     e( 14 - 14) =     28.69429  eV     1   --> A_1  D_1  S_1  
     e( 15 - 15) =     30.88972  eV     1   --> A_1  D_1  S_1  
     e( 16 - 16) =     31.05505  eV     1   --> B_2  D_4  S_4  
     e( 17 - 17) =     36.91863  eV     1   --> A_1  D_1  S_1  
     e( 18 - 18) =     37.85060  eV     1   --> B_1  D_3  S_3  
     e( 19 - 19) =     39.28436  eV     1   --> B_1  D_3  S_3  
     e( 20 - 20) =     40.04313  eV     1   --> A_1  D_1  S_1  

 **************************************************************************

 **************************************************************************

                    xk=(   0.00000,   0.54848,   0.00000  )

     Band symmetry, C_2v (mm2)  point group:

     e(  1 -  1) =    -39.65493  eV     1   --> A_1  D_1  S_1  
     e(  2 -  2) =    -14.40713  eV     1   --> A_1  D_1  S_1  
     e(  3 -  3) =    -13.85543  eV     1   --> B_2  D_4  S_4  
     e(  4 -  4) =    -13.73311  eV     1   --> B_1  D_3  S_3  
     e(  5 -  5) =     10.20387  eV     1   --> A_1  D_1  S_1  
     e(  6 -  6) =     11.68315  eV     1   --> A_1  D_1  S_1  
     e(  7 -  7) =     15.54556  eV     1   --> B_2  D_4  S_4  
     e(  8 -  8) =     16.34098  eV     1   --> A_1  D_1  S_1  
     e(  9 -  9) =     17.26804  eV     1   --> B_1  D_3  S_3  
     e( 10 - 10) =     21.33308  eV     1   --> A_2  D_2  S_2  
     e( 11 - 11) =     23.79970  eV     1   --> B_1  D_3  S_3  
     e( 12 - 12) =     23.92843  eV     1   --> B_2  D_4  S_4  
     e( 13 - 13) =     24.64132  eV     1   --> A_1  D_1  S_1  
     e( 14 - 14) =     28.63806  eV     1   --> A_1  D_1  S_1  
     e( 15 - 15) =     30.84957  eV     1   --> A_1  D_1  S_1  
     e( 16 - 16) =     31.12125  eV     1   --> B_2  D_4  S_4  
     e( 17 - 17) =     37.05464  eV     1   --> A_1  D_1  S_1  
     e( 18 - 18) =     38.01749  eV     1   --> B_1  D_3  S_3  
     e( 19 - 19) =     39.19869  eV     1   --> B_1  D_3  S_3  
     e( 20 - 20) =     39.95844  eV     1   --> A_1  D_1  S_1  

 **************************************************************************

 **************************************************************************

                    xk=(   0.00000,   0.56292,   0.00000  )

     Band symmetry, C_2v (mm2)  point group:

     e(  1 -  1) =    -39.65439  eV     1   --> A_1  D_1  S_1  
     e(  2 -  2) =    -14.41099  eV     1   --> A_1  D_1  S_1  
     e(  3 -  3) =    -13.85469  eV     1   --> B_2  D_4  S_4  
     e(  4 -  4) =    -13.73404  eV     1   --> B_1  D_3  S_3  
     e(  5 -  5) =     10.26834  eV     1   --> A_1  D_1  S_1  
     e(  6 -  6) =     11.61589  eV     1   --> A_1  D_1  S_1  
     e(  7 -  7) =     15.53782  eV     1   --> B_2  D_4  S_4  
     e(  8 -  8) =     16.33051  eV     1   --> A_1  D_1  S_1  
     e(  9 -  9) =     17.26670  eV     1   --> B_1  D_3  S_3  
     e( 10 - 10) =     21.32905  eV     1   --> A_2  D_2  S_2  
     e( 11 - 11) =     23.81269  eV     1   --> B_1  D_3  S_3  
     e( 12 - 12) =     23.91754  eV     1   --> B_2  D_4  S_4  
     e( 13 - 13) =     24.69817  eV     1   --> A_1  D_1  S_1  
     e( 14 - 14) =     28.60170  eV     1   --> A_1  D_1  S_1  
     e( 15 - 15) =     30.82629  eV     1   --> A_1  D_1  S_1  
     e( 16 - 16) =     31.16137  eV     1   --> B_2  D_4  S_4  
     e( 17 - 17) =     37.14016  eV     1   --> A_1  D_1  S_1  
     e( 18 - 18) =     38.12397  eV     1   --> B_1  D_3  S_3  
     e( 19 - 19) =     39.14417  eV     1   --> B_1  D_3  S_3  
     e( 20 - 20) =     39.90395  eV     1   --> A_1  D_1  S_1  

 **************************************************************************

 **************************************************************************

                    xk=(   0.00000,   0.57735,   0.00000  )

     point group D_2h (mmm) 
     there are  8 classes
     the character table:

       E     C2    C2'   C2''  i     s_v   s_v'  s_v''
A_g    1.00  1.00  1.00  1.00  1.00  1.00  1.00  1.00
B_1g   1.00  1.00 -1.00 -1.00  1.00  1.00 -1.00 -1.00
B_2g   1.00 -1.00  1.00 -1.00  1.00 -1.00  1.00 -1.00
B_3g   1.00 -1.00 -1.00  1.00  1.00 -1.00 -1.00  1.00
A_u    1.00  1.00  1.00  1.00 -1.00 -1.00 -1.00 -1.00
B_1u   1.00  1.00 -1.00 -1.00 -1.00 -1.00  1.00  1.00
B_2u   1.00 -1.00  1.00 -1.00 -1.00  1.00 -1.00  1.00
B_3u   1.00 -1.00 -1.00  1.00 -1.00  1.00  1.00 -1.00

     the symmetry operations in each class and the name of the first element:

     E        1
                                                                 
     C2       2
                                                                 
     C2'      4
                                                                 
     C2''     3
                                                                 
     i        5
                                                                 
     s_v      6
                                                                 
     s_v'     8
                                                                 
     s_v''    7
                                                                 

     Band symmetry, D_2h (mmm)  point group:

     e(  1 -  1) =    -39.65420  eV     1   --> A_g            
     e(  2 -  2) =    -14.41228  eV     1   --> B_3u           
     e(  3 -  3) =    -13.85445  eV     1   --> B_1u           
     e(  4 -  4) =    -13.73435  eV     1   --> B_2u           
     e(  5 -  5) =     10.29144  eV     1   --> A_g            
     e(  6 -  6) =     11.59221  eV     1   --> B_3u           
     e(  7 -  7) =     15.53484  eV     1   --> B_2g           
     e(  8 -  8) =     16.32692  eV     1   --> A_g            
     e(  9 -  9) =     17.26653  eV     1   --> B_2u           
     e( 10 - 10) =     21.32770  eV     1   --> B_3g           
     e( 11 - 11) =     23.81709  eV     1   --> B_1g           
     e( 12 - 12) =     23.91352  eV     1   --> B_1u           
     e( 13 - 13) =     24.71772  eV     1   --> A_g            
     e( 14 - 14) =     28.58921  eV     1   --> B_3u           
     e( 15 - 15) =     30.81840  eV     1   --> A_g            
     e( 16 - 16) =     31.17322  eV     1   --> B_2g           
     e( 17 - 17) =     37.16928  eV     1   --> A_g            
     e( 18 - 18) =     38.16425  eV     1   --> B_1g           
     e( 19 - 19) =     39.12523  eV     1   --> B_2u           
     e( 20 - 20) =     39.88345  eV     1   --> B_3u           

 **************************************************************************

 **************************************************************************

                    xk=(   0.01667,   0.57735,   0.00000  )

     point group C_2v (mm2) 
     there are  4 classes
     the character table:

       E     C2    s_v   s_v' 
A_1    1.00  1.00  1.00  1.00
A_2    1.00  1.00 -1.00 -1.00
B_1    1.00 -1.00  1.00 -1.00
B_2    1.00 -1.00 -1.00  1.00

     the symmetry operations in each class and the name of the first element:

     E        1
                                                                 
     C2       2
                                                                 
     s_v      4
                                                                 
     s_v'     3
                                                                 

     Band symmetry, C_2v (mm2)  point group:

     e(  1 -  1) =    -39.65412  eV     1   --> A_1  D_1  S_1  
     e(  2 -  2) =    -14.41153  eV     1   --> B_2  D_4  S_4  
     e(  3 -  3) =    -13.85434  eV     1   --> B_1  D_3  S_3  
     e(  4 -  4) =    -13.73597  eV     1   --> A_1  D_1  S_1  
     e(  5 -  5) =     10.29690  eV     1   --> A_1  D_1  S_1  
     e(  6 -  6) =     11.59338  eV     1   --> B_2  D_4  S_4  
     e(  7 -  7) =     15.53933  eV     1   --> A_2  D_2  S_2  
     e(  8 -  8) =     16.28367  eV     1   --> A_1  D_1  S_1  
     e(  9 -  9) =     17.30852  eV     1   --> A_1  D_1  S_1  
     e( 10 - 10) =     21.28108  eV     1   --> B_1  D_3  S_3  
     e( 11 - 11) =     23.79973  eV     1   --> B_2  D_4  S_4  
     e( 12 - 12) =     23.96769  eV     1   --> B_1  D_3  S_3  
     e( 13 - 13) =     24.70975  eV     1   --> A_1  D_1  S_1  
     e( 14 - 14) =     28.61363  eV     1   --> B_2  D_4  S_4  
     e( 15 - 15) =     30.83380  eV     1   --> A_1  D_1  S_1  
     e( 16 - 16) =     31.17026  eV     1   --> A_2  D_2  S_2  
     e( 17 - 17) =     37.14917  eV     1   --> A_1  D_1  S_1  
     e( 18 - 18) =     38.15083  eV     1   --> B_2  D_4  S_4  
     e( 19 - 19) =     39.13566  eV     1   --> A_1  D_1  S_1  
     e( 20 - 20) =     39.89442  eV     1   --> B_2  D_4  S_4  

 **************************************************************************

 **************************************************************************

                    xk=(   0.03333,   0.57735,   0.00000  )

     Band symmetry, C_2v (mm2)  point group:

     e(  1 -  1) =    -39.65389  eV     1   --> A_1  D_1  S_1  
     e(  2 -  2) =    -14.40927  eV     1   --> B_2  D_4  S_4  
     e(  3 -  3) =    -13.85402  eV     1   --> B_1  D_3  S_3  
     e(  4 -  4) =    -13.74078  eV     1   --> A_1  D_1  S_1  
     e(  5 -  5) =     10.31367  eV     1   --> A_1  D_1  S_1  
     e(  6 -  6) =     11.59760  eV     1   --> B_2  D_4  S_4  
     e(  7 -  7) =     15.55157  eV     1   --> A_2  D_2  S_2  
     e(  8 -  8) =     16.17059  eV     1   --> A_1  D_1  S_1  
     e(  9 -  9) =     17.41845  eV     1   --> A_1  D_1  S_1  
     e( 10 - 10) =     21.15159  eV     1   --> B_1  D_3  S_3  
     e( 11 - 11) =     23.74893  eV     1   --> B_2  D_4  S_4  
     e( 12 - 12) =     24.11859  eV     1   --> B_1  D_3  S_3  
     e( 13 - 13) =     24.68629  eV     1   --> A_1  D_1  S_1  
     e( 14 - 14) =     28.68674  eV     1   --> B_2  D_4  S_4  
     e( 15 - 15) =     30.88004  eV     1   --> A_1  D_1  S_1  
     e( 16 - 16) =     31.15649  eV     1   --> A_2  D_2  S_2  
     e( 17 - 17) =     37.09075  eV     1   --> A_1  D_1  S_1  
     e( 18 - 18) =     38.12079  eV     1   --> B_2  D_4  S_4  
     e( 19 - 19) =     39.16449  eV     1   --> A_1  D_1  S_1  
     e( 20 - 20) =     39.92408  eV     1   --> B_2  D_4  S_4  

 **************************************************************************

 **************************************************************************

                    xk=(   0.05000,   0.57735,   0.00000  )

     Band symmetry, C_2v (mm2)  point group:

     e(  1 -  1) =    -39.65349  eV     1   --> A_1  D_1  S_1  
     e(  2 -  2) =    -14.40552  eV     1   --> B_2  D_4  S_4  
     e(  3 -  3) =    -13.85350  eV     1   --> B_1  D_3  S_3  
     e(  4 -  4) =    -13.74873  eV     1   --> A_1  D_1  S_1  
     e(  5 -  5) =     10.34152  eV     1   --> A_1  D_1  S_1  
     e(  6 -  6) =     11.60465  eV     1   --> B_2  D_4  S_4  
     e(  7 -  7) =     15.57195  eV     1   --> A_2  D_2  S_2  
     e(  8 -  8) =     16.01587  eV     1   --> A_1  D_1  S_1  
     e(  9 -  9) =     17.56828  eV     1   --> A_1  D_1  S_1  
     e( 10 - 10) =     20.96207  eV     1   --> B_1  D_3  S_3  
     e( 11 - 11) =     23.66790  eV     1   --> B_2  D_4  S_4  
     e( 12 - 12) =     24.34362  eV     1   --> B_1  D_3  S_3  
     e( 13 - 13) =     24.64735  eV     1   --> A_1  D_1  S_1  
     e( 14 - 14) =     28.80491  eV     1   --> B_2  D_4  S_4  
     e( 15 - 15) =     30.95674  eV     1   --> A_1  D_1  S_1  
     e( 16 - 16) =     31.13365  eV     1   --> A_2  D_2  S_2  
     e( 17 - 17) =     36.99951  eV     1   --> A_1  D_1  S_1  
     e( 18 - 18) =     38.07284  eV     1   --> B_2  D_4  S_4  
     e( 19 - 19) =     39.20523  eV     1   --> A_1  D_1  S_1  
     e( 20 - 20) =     39.97127  eV     1   --> B_2  D_4  S_4  

 **************************************************************************

 **************************************************************************

                    xk=(   0.06667,   0.57735,   0.00000  )

     Band symmetry, C_2v (mm2)  point group:

     e(  1 -  1) =    -39.65295  eV     1   --> A_1  D_1  S_1  
     e(  2 -  2) =    -14.40029  eV     1   --> B_2  D_4  S_4  
     e(  3 -  3) =    -13.85278  eV     1   --> B_1  D_3  S_3  
     e(  4 -  4) =    -13.75972  eV     1   --> A_1  D_1  S_1  
     e(  5 -  5) =     10.38040  eV     1   --> A_1  D_1  S_1  
     e(  6 -  6) =     11.61452  eV     1   --> B_2  D_4  S_4  
     e(  7 -  7) =     15.60035  eV     1   --> A_2  D_2  S_2  
     e(  8 -  8) =     15.83763  eV     1   --> A_1  D_1  S_1  
     e(  9 -  9) =     17.74061  eV     1   --> A_1  D_1  S_1  
     e( 10 - 10) =     20.73467  eV     1   --> B_1  D_3  S_3  
     e( 11 - 11) =     23.56125  eV     1   --> B_2  D_4  S_4  
     e( 12 - 12) =     24.59317  eV     1   --> A_1  D_1  S_1  
     e( 13 - 13) =     24.61991  eV     1   --> B_1  D_3  S_3  
     e( 14 - 14) =     28.96345  eV     1   --> B_2  D_4  S_4  
     e( 15 - 15) =     31.06288  eV     1   --> A_1  D_1  S_1  
     e( 16 - 16) =     31.10097  eV     1   --> A_2  D_2  S_2  
     e( 17 - 17) =     36.88176  eV     1   --> A_1  D_1  S_1  
     e( 18 - 18) =     38.01400  eV     1   --> B_2  D_4  S_4  
     e( 19 - 19) =     39.24937  eV     1   --> A_1  D_1  S_1  
     e( 20 - 20) =     40.03117  eV     1   --> B_2  D_4  S_4  

 **************************************************************************

 **************************************************************************

                    xk=(   0.08333,   0.57735,   0.00000  )

     Band symmetry, C_2v (mm2)  point group:

     e(  1 -  1) =    -39.65229  eV     1   --> A_1  D_1  S_1  
     e(  2 -  2) =    -14.39361  eV     1   --> B_2  D_4  S_4  
     e(  3 -  3) =    -13.85187  eV     1   --> B_1  D_3  S_3  
     e(  4 -  4) =    -13.77361  eV     1   --> A_1  D_1  S_1  
     e(  5 -  5) =     10.42985  eV     1   --> A_1  D_1  S_1  
     e(  6 -  6) =     11.62711  eV     1   --> B_2  D_4  S_4  
     e(  7 -  7) =     15.63680  eV     1   --> A_2  D_2  S_2  
     e(  8 -  8) =     15.64470  eV     1   --> A_1  D_1  S_1  
     e(  9 -  9) =     17.92603  eV     1   --> A_1  D_1  S_1  
     e( 10 - 10) =     20.48565  eV     1   --> B_1  D_3  S_3  
     e( 11 - 11) =     23.43410  eV     1   --> B_2  D_4  S_4  
     e( 12 - 12) =     24.52393  eV     1   --> A_1  D_1  S_1  
     e( 13 - 13) =     24.93141  eV     1   --> B_1  D_3  S_3  
     e( 14 - 14) =     29.15701  eV     1   --> B_2  D_4  S_4  
     e( 15 - 15) =     31.05978  eV     1   --> A_2  D_2  S_2  
     e( 16 - 16) =     31.19788  eV     1   --> A_1  D_1  S_1  
     e( 17 - 17) =     36.74266  eV     1   --> A_1  D_1  S_1  
     e( 18 - 18) =     37.93788  eV     1   --> B_2  D_4  S_4  
     e( 19 - 19) =     39.28776  eV     1   --> A_1  D_1  S_1  
     e( 20 - 20) =     40.10167  eV     1   --> B_2  D_4  S_4  

 **************************************************************************

 **************************************************************************

                    xk=(   0.10000,   0.57735,   0.00000  )

     Band symmetry, C_2v (mm2)  point group:

     e(  1 -  1) =    -39.65149  eV     1   --> A_1  D_1  S_1  
     e(  2 -  2) =    -14.38549  eV     1   --> B_2  D_4  S_4  
     e(  3 -  3) =    -13.85081  eV     1   --> B_1  D_3  S_3  
     e(  4 -  4) =    -13.79020  eV     1   --> A_1  D_1  S_1  
     e(  5 -  5) =     10.48993  eV     1   --> A_1  D_1  S_1  
     e(  6 -  6) =     11.64269  eV     1   --> B_2  D_4  S_4  
     e(  7 -  7) =     15.44207  eV     1   --> A_1  D_1  S_1  
     e(  8 -  8) =     15.68150  eV     1   --> A_2  D_2  S_2  
     e(  9 -  9) =     18.12197  eV     1   --> A_1  D_1  S_1  
     e( 10 - 10) =     20.22569  eV     1   --> B_1  D_3  S_3  
     e( 11 - 11) =     23.29154  eV     1   --> B_2  D_4  S_4  
     e( 12 - 12) =     24.44037  eV     1   --> A_1  D_1  S_1  
     e( 13 - 13) =     25.26689  eV     1   --> B_1  D_3  S_3  
     e( 14 - 14) =     29.38033  eV     1   --> B_2  D_4  S_4  
     e( 15 - 15) =     31.01074  eV     1   --> A_2  D_2  S_2  
     e( 16 - 16) =     31.36148  eV     1   --> A_1  D_1  S_1  
     e( 17 - 17) =     36.59127  eV     1   --> A_1  D_1  S_1  
     e( 18 - 18) =     37.85175  eV     1   --> B_2  D_4  S_4  
     e( 19 - 19) =     39.31199  eV     1   --> A_1  D_1  S_1  
     e( 20 - 20) =     39.88792  eV     1   --> B_1  D_3  S_3  

 **************************************************************************

 **************************************************************************

                    xk=(   0.11667,   0.57735,   0.00000  )

     Band symmetry, C_2v (mm2)  point group:

     e(  1 -  1) =    -39.65059  eV     1   --> A_1  D_1  S_1  
     e(  2 -  2) =    -14.37597  eV     1   --> B_2  D_4  S_4  
     e(  3 -  3) =    -13.84959  eV     1   --> B_1  D_3  S_3  
     e(  4 -  4) =    -13.80929  eV     1   --> A_1  D_1  S_1  
     e(  5 -  5) =     10.56026  eV     1   --> A_1  D_1  S_1  
     e(  6 -  6) =     11.66117  eV     1   --> B_2  D_4  S_4  
     e(  7 -  7) =     15.23201  eV     1   --> A_1  D_1  S_1  
     e(  8 -  8) =     15.73426  eV     1   --> A_2  D_2  S_2  
     e(  9 -  9) =     18.32629  eV     1   --> A_1  D_1  S_1  
     e( 10 - 10) =     19.96155  eV     1   --> B_1  D_3  S_3  
[...]
     e(  9 -  9) =     18.53334  eV     1   --> B_1  D_3  S_3  
     e( 10 - 10) =     20.46978  eV     1   --> A_1  D_1  S_1  
     e( 11 - 11) =     21.93169  eV     1   --> A_1  D_1  S_1  
     e( 12 - 12) =     22.29150  eV     1   --> A_2  D_2  S_2  
     e( 13 - 13) =     22.72652  eV     1   --> B_2  D_4  S_4  
     e( 14 - 14) =     28.64554  eV     1   --> B_1  D_3  S_3  
     e( 15 - 15) =     32.14464  eV     1   --> B_2  D_4  S_4  
     e( 16 - 16) =     32.36620  eV     1   --> A_2  D_2  S_2  
     e( 17 - 17) =     34.44840  eV     1   --> A_2  D_2  S_2  
     e( 18 - 18) =     36.27228  eV     1   --> B_2  D_4  S_4  
     e( 19 - 19) =     37.65499  eV     1   --> A_1  D_1  S_1  
     e( 20 - 20) =     40.80425  eV     1   --> A_1  D_1  S_1  

 **************************************************************************

 **************************************************************************

                    xk=(   0.08333,   0.14434,   0.46203  )

     Band symmetry, C_2v (mm2)  point group:

     e(  1 -  1) =    -39.72278  eV     1   --> A_1  D_1  S_1  
     e(  2 -  2) =    -14.35822  eV     1   --> B_2  D_4  S_4  
     e(  3 -  3) =    -13.66491  eV     1   --> A_1  D_1  S_1  
     e(  4 -  4) =    -13.53762  eV     1   --> B_1  D_3  S_3  
     e(  5 -  5) =      9.20637  eV     1   --> B_2  D_4  S_4  
     e(  6 -  6) =     12.89743  eV     1   --> A_1  D_1  S_1  
     e(  7 -  7) =     16.96241  eV     1   --> A_2  D_2  S_2  
     e(  8 -  8) =     17.28110  eV     1   --> B_2  D_4  S_4  
     e(  9 -  9) =     18.69382  eV     1   --> B_1  D_3  S_3  
     e( 10 - 10) =     20.34253  eV     1   --> A_1  D_1  S_1  
     e( 11 - 11) =     21.87675  eV     1   --> A_1  D_1  S_1  
     e( 12 - 12) =     22.07626  eV     1   --> A_2  D_2  S_2  
     e( 13 - 13) =     22.44400  eV     1   --> B_2  D_4  S_4  
     e( 14 - 14) =     28.41664  eV     1   --> B_1  D_3  S_3  
     e( 15 - 15) =     32.29820  eV     1   --> B_2  D_4  S_4  
     e( 16 - 16) =     32.33623  eV     1   --> A_2  D_2  S_2  
     e( 17 - 17) =     34.30722  eV     1   --> A_2  D_2  S_2  
     e( 18 - 18) =     35.98851  eV     1   --> B_2  D_4  S_4  
     e( 19 - 19) =     37.90536  eV     1   --> A_1  D_1  S_1  
     e( 20 - 20) =     41.16408  eV     1   --> A_1  D_1  S_1  

 **************************************************************************

 **************************************************************************

                    xk=(   0.07500,   0.12990,   0.46203  )

     Band symmetry, C_2v (mm2)  point group:

     e(  1 -  1) =    -39.72672  eV     1   --> A_1  D_1  S_1  
     e(  2 -  2) =    -14.36507  eV     1   --> B_2  D_4  S_4  
     e(  3 -  3) =    -13.63546  eV     1   --> A_1  D_1  S_1  
     e(  4 -  4) =    -13.52974  eV     1   --> B_1  D_3  S_3  
     e(  5 -  5) =      9.19877  eV     1   --> B_2  D_4  S_4  
     e(  6 -  6) =     12.77326  eV     1   --> A_1  D_1  S_1  
     e(  7 -  7) =     17.22785  eV     1   --> A_2  D_2  S_2  
     e(  8 -  8) =     17.48258  eV     1   --> B_2  D_4  S_4  
     e(  9 -  9) =     18.85200  eV     1   --> B_1  D_3  S_3  
     e( 10 - 10) =     20.22646  eV     1   --> A_1  D_1  S_1  
     e( 11 - 11) =     21.82677  eV     1   --> A_1  D_1  S_1  
     e( 12 - 12) =     21.85695  eV     1   --> A_2  D_2  S_2  
     e( 13 - 13) =     22.16132  eV     1   --> B_2  D_4  S_4  
     e( 14 - 14) =     28.19005  eV     1   --> B_1  D_3  S_3  
     e( 15 - 15) =     32.29311  eV     1   --> A_2  D_2  S_2  
     e( 16 - 16) =     32.45121  eV     1   --> B_2  D_4  S_4  
     e( 17 - 17) =     34.19478  eV     1   --> A_2  D_2  S_2  
     e( 18 - 18) =     35.71867  eV     1   --> B_2  D_4  S_4  
     e( 19 - 19) =     38.12902  eV     1   --> A_1  D_1  S_1  
     e( 20 - 20) =     41.53476  eV     1   --> A_1  D_1  S_1  

 **************************************************************************

 **************************************************************************

                    xk=(   0.06667,   0.11547,   0.46203  )

     Band symmetry, C_2v (mm2)  point group:

     e(  1 -  1) =    -39.73033  eV     1   --> A_1  D_1  S_1  
     e(  2 -  2) =    -14.37136  eV     1   --> B_2  D_4  S_4  
     e(  3 -  3) =    -13.60812  eV     1   --> A_1  D_1  S_1  
     e(  4 -  4) =    -13.52271  eV     1   --> B_1  D_3  S_3  
     e(  5 -  5) =      9.19234  eV     1   --> B_2  D_4  S_4  
     e(  6 -  6) =     12.66020  eV     1   --> A_1  D_1  S_1  
     e(  7 -  7) =     17.49422  eV     1   --> A_2  D_2  S_2  
     e(  8 -  8) =     17.69203  eV     1   --> B_2  D_4  S_4  
     e(  9 -  9) =     19.00557  eV     1   --> B_1  D_3  S_3  
     e( 10 - 10) =     20.12192  eV     1   --> A_1  D_1  S_1  
     e( 11 - 11) =     21.63300  eV     1   --> A_2  D_2  S_2  
     e( 12 - 12) =     21.78185  eV     1   --> A_1  D_1  S_1  
     e( 13 - 13) =     21.87904  eV     1   --> B_2  D_4  S_4  
     e( 14 - 14) =     27.96926  eV     1   --> B_1  D_3  S_3  
     e( 15 - 15) =     32.23935  eV     1   --> A_2  D_2  S_2  
     e( 16 - 16) =     32.60472  eV     1   --> B_2  D_4  S_4  
     e( 17 - 17) =     34.10878  eV     1   --> A_2  D_2  S_2  
     e( 18 - 18) =     35.46409  eV     1   --> B_2  D_4  S_4  
     e( 19 - 19) =     38.32782  eV     1   --> A_1  D_1  S_1  
     e( 20 - 20) =     41.91297  eV     1   --> A_1  D_1  S_1  

 **************************************************************************

 **************************************************************************

                    xk=(   0.05833,   0.10104,   0.46203  )

     Band symmetry, C_2v (mm2)  point group:

     e(  1 -  1) =    -39.73358  eV     1   --> A_1  D_1  S_1  
     e(  2 -  2) =    -14.37702  eV     1   --> B_2  D_4  S_4  
     e(  3 -  3) =    -13.58322  eV     1   --> A_1  D_1  S_1  
     e(  4 -  4) =    -13.51653  eV     1   --> B_1  D_3  S_3  
     e(  5 -  5) =      9.18677  eV     1   --> B_2  D_4  S_4  
     e(  6 -  6) =     12.55886  eV     1   --> A_1  D_1  S_1  
     e(  7 -  7) =     17.76055  eV     1   --> A_2  D_2  S_2  
     e(  8 -  8) =     17.90891  eV     1   --> B_2  D_4  S_4  
     e(  9 -  9) =     19.15193  eV     1   --> B_1  D_3  S_3  
     e( 10 - 10) =     20.02917  eV     1   --> A_1  D_1  S_1  
     e( 11 - 11) =     21.40341  eV     1   --> A_2  D_2  S_2  
     e( 12 - 12) =     21.59721  eV     1   --> B_2  D_4  S_4  
     e( 13 - 13) =     21.74202  eV     1   --> A_1  D_1  S_1  
     e( 14 - 14) =     27.75832  eV     1   --> B_1  D_3  S_3  
     e( 15 - 15) =     32.17872  eV     1   --> A_2  D_2  S_2  
     e( 16 - 16) =     32.75743  eV     1   --> B_2  D_4  S_4  
     e( 17 - 17) =     34.04529  eV     1   --> A_2  D_2  S_2  
     e( 18 - 18) =     35.22269  eV     1   --> B_2  D_4  S_4  
     e( 19 - 19) =     38.50106  eV     1   --> A_1  D_1  S_1  
     e( 20 - 20) =     42.29530  eV     1   --> A_1  D_1  S_1  

 **************************************************************************

 **************************************************************************

                    xk=(   0.05000,   0.08660,   0.46203  )

     Band symmetry, C_2v (mm2)  point group:

     e(  1 -  1) =    -39.73646  eV     1   --> A_1  D_1  S_1  
     e(  2 -  2) =    -14.38202  eV     1   --> B_2  D_4  S_4  
     e(  3 -  3) =    -13.56101  eV     1   --> A_1  D_1  S_1  
     e(  4 -  4) =    -13.51118  eV     1   --> B_1  D_3  S_3  
     e(  5 -  5) =      9.18204  eV     1   --> B_2  D_4  S_4  
     e(  6 -  6) =     12.46979  eV     1   --> A_1  D_1  S_1  
     e(  7 -  7) =     18.02667  eV     1   --> A_2  D_2  S_2  
     e(  8 -  8) =     18.13215  eV     1   --> B_2  D_4  S_4  
     e(  9 -  9) =     19.28823  eV     1   --> B_1  D_3  S_3  
     e( 10 - 10) =     19.94844  eV     1   --> A_1  D_1  S_1  
     e( 11 - 11) =     21.17063  eV     1   --> A_2  D_2  S_2  
     e( 12 - 12) =     21.31671  eV     1   --> B_2  D_4  S_4  
     e( 13 - 13) =     21.70734  eV     1   --> A_1  D_1  S_1  
     e( 14 - 14) =     27.56311  eV     1   --> B_1  D_3  S_3  
     e( 15 - 15) =     32.11556  eV     1   --> A_2  D_2  S_2  
     e( 16 - 16) =     32.91003  eV     1   --> B_2  D_4  S_4  
     e( 17 - 17) =     34.00002  eV     1   --> A_2  D_2  S_2  
     e( 18 - 18) =     34.99554  eV     1   --> B_2  D_4  S_4  
     e( 19 - 19) =     38.65041  eV     1   --> A_1  D_1  S_1  
     e( 20 - 20) =     42.67838  eV     1   --> A_1  D_1  S_1  

 **************************************************************************

 **************************************************************************

                    xk=(   0.04167,   0.07217,   0.46203  )

     Band symmetry, C_2v (mm2)  point group:

     e(  1 -  1) =    -39.73893  eV     1   --> A_1  D_1  S_1  
     e(  2 -  2) =    -14.38632  eV     1   --> B_2  D_4  S_4  
     e(  3 -  3) =    -13.54177  eV     1   --> A_1  D_1  S_1  
     e(  4 -  4) =    -13.50666  eV     1   --> B_1  D_3  S_3  
     e(  5 -  5) =      9.17823  eV     1   --> B_2  D_4  S_4  
     e(  6 -  6) =     12.39356  eV     1   --> A_1  D_1  S_1  
     e(  7 -  7) =     18.29205  eV     1   --> A_2  D_2  S_2  
     e(  8 -  8) =     18.36195  eV     1   --> B_2  D_4  S_4  
     e(  9 -  9) =     19.41137  eV     1   --> B_1  D_3  S_3  
     e( 10 - 10) =     19.87989  eV     1   --> A_1  D_1  S_1  
     e( 11 - 11) =     20.93443  eV     1   --> A_2  D_2  S_2  
     e( 12 - 12) =     21.03936  eV     1   --> B_2  D_4  S_4  
     e( 13 - 13) =     21.67789  eV     1   --> A_1  D_1  S_1  
     e( 14 - 14) =     27.38779  eV     1   --> B_1  D_3  S_3  
     e( 15 - 15) =     32.05477  eV     1   --> A_2  D_2  S_2  
     e( 16 - 16) =     33.06269  eV     1   --> B_2  D_4  S_4  
     e( 17 - 17) =     33.96974  eV     1   --> A_2  D_2  S_2  
     e( 18 - 18) =     34.78103  eV     1   --> B_2  D_4  S_4  
     e( 19 - 19) =     38.77606  eV     1   --> A_1  D_1  S_1  
     e( 20 - 20) =     43.05855  eV     1   --> A_1  D_1  S_1  

 **************************************************************************

 **************************************************************************

                    xk=(   0.03333,   0.05774,   0.46203  )

     Band symmetry, C_2v (mm2)  point group:

     e(  1 -  1) =    -39.74098  eV     1   --> A_1  D_1  S_1  
     e(  2 -  2) =    -14.38988  eV     1   --> B_2  D_4  S_4  
     e(  3 -  3) =    -13.52571  eV     1   --> A_1  D_1  S_1  
     e(  4 -  4) =    -13.50298  eV     1   --> B_1  D_3  S_3  
     e(  5 -  5) =      9.17508  eV     1   --> B_2  D_4  S_4  
     e(  6 -  6) =     12.33053  eV     1   --> A_1  D_1  S_1  
     e(  7 -  7) =     18.55493  eV     1   --> A_2  D_2  S_2  
     e(  8 -  8) =     18.59638  eV     1   --> B_2  D_4  S_4  
     e(  9 -  9) =     19.51811  eV     1   --> B_1  D_3  S_3  
     e( 10 - 10) =     19.82364  eV     1   --> A_1  D_1  S_1  
     e( 11 - 11) =     20.69510  eV     1   --> A_2  D_2  S_2  
     e( 12 - 12) =     20.76490  eV     1   --> B_2  D_4  S_4  
     e( 13 - 13) =     21.65370  eV     1   --> A_1  D_1  S_1  
     e( 14 - 14) =     27.23666  eV     1   --> B_1  D_3  S_3  
     e( 15 - 15) =     31.99958  eV     1   --> A_2  D_2  S_2  
     e( 16 - 16) =     33.21527  eV     1   --> B_2  D_4  S_4  
     e( 17 - 17) =     33.94957  eV     1   --> A_2  D_2  S_2  
     e( 18 - 18) =     34.57819  eV     1   --> B_2  D_4  S_4  
     e( 19 - 19) =     38.87840  eV     1   --> A_1  D_1  S_1  
     e( 20 - 20) =     43.43083  eV     1   --> A_1  D_1  S_1  

 **************************************************************************

 **************************************************************************

                    xk=(   0.02500,   0.04330,   0.46203  )

     Band symmetry, C_2v (mm2)  point group:

     e(  1 -  1) =    -39.74258  eV     1   --> A_1  D_1  S_1  
     e(  2 -  2) =    -14.39267  eV     1   --> B_2  D_4  S_4  
     e(  3 -  3) =    -13.51301  eV     1   --> A_1  D_1  S_1  
     e(  4 -  4) =    -13.50011  eV     1   --> B_1  D_3  S_3  
     e(  5 -  5) =      9.17375  eV     1   --> B_2  D_4  S_4  
     e(  6 -  6) =     12.28120  eV     1   --> A_1  D_1  S_1  
     e(  7 -  7) =     18.81342  eV     1   --> A_2  D_2  S_2  
     e(  8 -  8) =     18.83400  eV     1   --> B_2  D_4  S_4  
     e(  9 -  9) =     19.60531  eV     1   --> B_1  D_3  S_3  
     e( 10 - 10) =     19.77981  eV     1   --> A_1  D_1  S_1  
     e( 11 - 11) =     20.45583  eV     1   --> A_2  D_2  S_2  
     e( 12 - 12) =     20.49739  eV     1   --> B_2  D_4  S_4  
     e( 13 - 13) =     21.63485  eV     1   --> A_1  D_1  S_1  
     e( 14 - 14) =     27.11420  eV     1   --> B_1  D_3  S_3  
     e( 15 - 15) =     31.95395  eV     1   --> A_2  D_2  S_2  
     e( 16 - 16) =     33.37015  eV     1   --> B_2  D_4  S_4  
     e( 17 - 17) =     33.93900  eV     1   --> A_2  D_2  S_2  
     e( 18 - 18) =     34.38959  eV     1   --> B_2  D_4  S_4  
     e( 19 - 19) =     38.95779  eV     1   --> A_1  D_1  S_1  
     e( 20 - 20) =     43.78705  eV     1   --> B_1  D_3  S_3  

 **************************************************************************

 **************************************************************************

                    xk=(   0.01667,   0.02887,   0.46203  )

     Band symmetry, C_2v (mm2)  point group:

     e(  1 -  1) =    -39.74374  eV     1   --> A_1  D_1  S_1  
     e(  2 -  2) =    -14.39469  eV     1   --> B_2  D_4  S_4  
     e(  3 -  3) =    -13.50384  eV     1   --> A_1  D_1  S_1  
     e(  4 -  4) =    -13.49807  eV     1   --> B_1  D_3  S_3  
     e(  5 -  5) =      9.17210  eV     1   --> B_2  D_4  S_4  
     e(  6 -  6) =     12.24581  eV     1   --> A_1  D_1  S_1  
     e(  7 -  7) =     19.06148  eV     1   --> A_2  D_2  S_2  
     e(  8 -  8) =     19.06903  eV     1   --> B_2  D_4  S_4  
     e(  9 -  9) =     19.67001  eV     1   --> B_1  D_3  S_3  
     e( 10 - 10) =     19.74845  eV     1   --> A_1  D_1  S_1  
     e( 11 - 11) =     20.21985  eV     1   --> A_2  D_2  S_2  
     e( 12 - 12) =     20.24174  eV     1   --> B_2  D_4  S_4  
     e( 13 - 13) =     21.62139  eV     1   --> A_1  D_1  S_1  
     e( 14 - 14) =     27.02449  eV     1   --> B_1  D_3  S_3  
     e( 15 - 15) =     31.92010  eV     1   --> A_2  D_2  S_2  
     e( 16 - 16) =     33.52401  eV     1   --> B_2  D_4  S_4  
     e( 17 - 17) =     33.93199  eV     1   --> A_2  D_2  S_2  
     e( 18 - 18) =     34.20800  eV     1   --> B_2  D_4  S_4  
     e( 19 - 19) =     39.01462  eV     1   --> A_1  D_1  S_1  
     e( 20 - 20) =     44.11119  eV     1   --> A_1  D_1  S_1  

 **************************************************************************

 **************************************************************************

                    xk=(   0.00833,   0.01443,   0.46203  )

     Band symmetry, C_2v (mm2)  point group:

     e(  1 -  1) =    -39.74444  eV     1   --> A_1  D_1  S_1  
     e(  2 -  2) =    -14.39590  eV     1   --> B_2  D_4  S_4  
     e(  3 -  3) =    -13.49829  eV     1   --> A_1  D_1  S_1  
     e(  4 -  4) =    -13.49684  eV     1   --> B_1  D_3  S_3  
     e(  5 -  5) =      9.17110  eV     1   --> B_2  D_4  S_4  
     e(  6 -  6) =     12.22444  eV     1   --> A_1  D_1  S_1  
     e(  7 -  7) =     19.28207  eV     1   --> A_2  D_2  S_2  
     e(  8 -  8) =     19.28297  eV     1   --> B_2  D_4  S_4  
     e(  9 -  9) =     19.70986  eV     1   --> B_1  D_3  S_3  
     e( 10 - 10) =     19.72961  eV     1   --> A_1  D_1  S_1  
     e( 11 - 11) =     20.00751  eV     1   --> A_2  D_2  S_2  
     e( 12 - 12) =     20.01476  eV     1   --> B_2  D_4  S_4  
     e( 13 - 13) =     21.61328  eV     1   --> A_1  D_1  S_1  
     e( 14 - 14) =     26.96897  eV     1   --> B_1  D_3  S_3  
     e( 15 - 15) =     31.89902  eV     1   --> A_2  D_2  S_2  
     e( 16 - 16) =     33.67680  eV     1   --> B_2  D_4  S_4  
     e( 17 - 17) =     33.92823  eV     1   --> A_2  D_2  S_2  
     e( 18 - 18) =     34.03913  eV     1   --> B_2  D_4  S_4  
     e( 19 - 19) =     39.04855  eV     1   --> A_1  D_1  S_1  
     e( 20 - 20) =     44.36446  eV     1   --> A_1  D_1  S_1  

 **************************************************************************

 **************************************************************************

                    xk=(   0.00000,   0.00000,   0.46203  )

     point group D_6h(6/mmm)
     there are 12 classes
     the character table:

       E     2C6   2C3   C2    3C2'  3C2'' i     2S3   2S6   s_h   3s_d  3s_v 
A_1g   1.00  1.00  1.00  1.00  1.00  1.00  1.00  1.00  1.00  1.00  1.00  1.00
A_2g   1.00  1.00  1.00  1.00 -1.00 -1.00  1.00  1.00  1.00  1.00 -1.00 -1.00
B_1g   1.00 -1.00  1.00 -1.00  1.00 -1.00  1.00 -1.00  1.00 -1.00  1.00 -1.00
B_2g   1.00 -1.00  1.00 -1.00 -1.00  1.00  1.00 -1.00  1.00 -1.00 -1.00  1.00
E_1g   2.00  1.00 -1.00 -2.00  0.00  0.00  2.00  1.00 -1.00 -2.00  0.00  0.00
E_2g   2.00 -1.00 -1.00  2.00  0.00  0.00  2.00 -1.00 -1.00  2.00  0.00  0.00
A_1u   1.00  1.00  1.00  1.00  1.00  1.00 -1.00 -1.00 -1.00 -1.00 -1.00 -1.00
A_2u   1.00  1.00  1.00  1.00 -1.00 -1.00 -1.00 -1.00 -1.00 -1.00  1.00  1.00
B_1u   1.00 -1.00  1.00 -1.00  1.00 -1.00 -1.00  1.00 -1.00  1.00 -1.00  1.00
B_2u   1.00 -1.00  1.00 -1.00 -1.00  1.00 -1.00  1.00 -1.00  1.00  1.00 -1.00
E_1u   2.00  1.00 -1.00 -2.00  0.00  0.00 -2.00 -1.00  1.00  2.00  0.00  0.00
E_2u   2.00 -1.00 -1.00  2.00  0.00  0.00 -2.00  1.00  1.00 -2.00  0.00  0.00

     the symmetry operations in each class and the name of the first element:

     E        1
                                                                 
     2C6      5    6
                                                                 
     2C3      7    8
                                                                 
     C2       2
                                                                 
     3C2'     4   12   11
                                                                 
     3C2''    3    9   10
                                                                 
     i       13
                                                                 
     2S3     17   18
                                                                 
     2S6     19   20
                                                                 
     s_h     14
                                                                 
     3s_d    16   24   23
                                                                 
     3s_v    15   21   22
                                                                 

     Band symmetry, D_6h(6/mmm) point group:

     e(  1 -  1) =    -39.74466  eV     1   --> A_1g           
     e(  2 -  2) =    -14.39631  eV     1   --> A_2u           
     e(  3 -  4) =    -13.49643  eV     2   --> E_1u           
     e(  5 -  5) =      9.17106  eV     1   --> A_2u           
     e(  6 -  6) =     12.21753  eV     1   --> A_1g           
     e(  7 -  8) =     19.39419  eV     2   --> E_1g           
     e(  9 - 10) =     19.72333  eV     2   --> E_2g           
     e( 11 - 12) =     19.89988  eV     2   --> E_2u           
     e( 13 - 13) =     21.61067  eV     1   --> A_1g           
     e( 14 - 14) =     26.95203  eV     1   --> B_2u           
     e( 15 - 15) =     31.89334  eV     1   --> B_1g           
     e( 16 - 16) =     33.78397  eV     1   --> A_2u           
     e( 17 - 18) =     33.92730  eV     2   --> E_1g           
     e( 19 - 19) =     39.06037  eV     1   --> A_1g           
     e( 20 - 20) =     44.46905  eV     1   -->   ?

 **************************************************************************
 
     BANDS        :      5.99s CPU      6.51s WALL

 
   This run was terminated on:  11:47:35  28Apr2022            

=------------------------------------------------------------------------------=
   JOB DONE.
=------------------------------------------------------------------------------=
