
     Program PWSCF v.7.0 starts on 11Apr2022 at 19:22:17 

     This program is part of the open-source Quantum ESPRESSO suite
     for quantum simulation of materials; please cite
         "P. Giannozzi et al., J. Phys.:Condens. Matter 21 395502 (2009);
         "P. Giannozzi et al., J. Phys.:Condens. Matter 29 465901 (2017);
         "P. Giannozzi et al., J. Chem. Phys. 152 154105 (2020);
          URL http://www.quantum-espresso.org", 
     in publications or presentations arising from this work. More details at
     http://www.quantum-espresso.org/quote

     Parallel version (MPI), running on     8 processors

     MPI processes distributed on     1 nodes
     R & G space division:  proc/nbgrp/npool/nimage =       8
     519 MiB available memory on the printing compute node when the environment starts
 
     Reading input from mob2_pw.in

     Current dimensions of program PWSCF are:
     Max number of different atomic species (ntypx) = 10
     Max number of k-points (npk) =  40000
     Max angular momentum in pseudopotentials (lmaxx) =  4

     Subspace diagonalization in iterative solution of the eigenvalue problem:
     a serial algorithm will be used

 
     Parallelization info
     --------------------
     sticks:   dense  smooth     PW     G-vecs:    dense   smooth      PW
     Min          39      39     13                  647      647     123
     Max          40      40     14                  652      652     126
     Sum         313     313    109                 5185     5185     997
 
     Using Slab Decomposition
 


     bravais-lattice index     =            4
     lattice parameter (alat)  =       5.6754  a.u.
     unit-cell volume          =     177.0000 (a.u.)^3
     number of atoms/cell      =            3
     number of atomic types    =            2
     number of electrons       =        20.00
     number of Kohn-Sham states=           20
     kinetic-energy cutoff     =      36.0000  Ry
     charge density cutoff     =     144.0000  Ry
     scf convergence threshold =      1.0E-06
     mixing beta               =       0.7000
     number of iterations used =            8  plain     mixing
     Exchange-correlation= PBE
                           (   1   4   3   4   0   0   0)

     celldm(1)=   5.675450  celldm(2)=   0.000000  celldm(3)=   1.118000
     celldm(4)=   0.000000  celldm(5)=   0.000000  celldm(6)=   0.000000

     crystal axes: (cart. coord. in units of alat)
               a(1) = (   1.000000   0.000000   0.000000 )  
               a(2) = (  -0.500000   0.866025   0.000000 )  
               a(3) = (   0.000000   0.000000   1.118000 )  

     reciprocal axes: (cart. coord. in units 2 pi/alat)
               b(1) = (  1.000000  0.577350  0.000000 )  
               b(2) = (  0.000000  1.154701  0.000000 )  
               b(3) = (  0.000000  0.000000  0.894454 )  


     PseudoPot. # 1 for Mo read from file:
     /home/marcocarmonaga/qe-7.0/pseudo/Mo_ONCV_PBE-1.2.upf
     MD5 check sum: 2665c9f4159700498d9a5f7573bd8e9f
     Pseudo is Norm-conserving, Zval = 14.0
     Generated using ONCVPSP code by D. R. Hamann
     Using radial grid of  602 points,  6 beta functions with: 
                l(1) =   0
                l(2) =   0
                l(3) =   1
                l(4) =   1
                l(5) =   2
                l(6) =   2

     PseudoPot. # 2 for B  read from file:
     /home/marcocarmonaga/qe-7.0/pseudo/B_ONCV_PBE-1.2.upf
     MD5 check sum: eb3cbeacc2d324d57d903df00f564d27
     Pseudo is Norm-conserving, Zval =  3.0
     Generated using ONCVPSP code by D. R. Hamann
     Using radial grid of  602 points,  4 beta functions with: 
                l(1) =   0
                l(2) =   0
                l(3) =   1
                l(4) =   1

     atomic species   valence    mass     pseudopotential
        Mo            14.00    95.95000     Mo( 1.00)
        B              3.00    10.81000     B ( 1.00)

     24 Sym. Ops., with inversion, found



   Cartesian axes

     site n.     atom                  positions (alat units)
         1           Mo  tau(   1) = (   0.0000000   0.0000000   0.0000000  )
         2           B   tau(   2) = (   0.5000000   0.2886751   0.5590000  )
         3           B   tau(   3) = (  -0.0000000   0.5773503   0.5590000  )

     number of k points=   333  Gaussian smearing, width (Ry)=  0.0150

     Number of k-points >= 100: set verbosity='high' to print them.

     Dense  grid:     5185 G-vectors     FFT dimensions: (  24,  24,  25)

     Estimated max dynamical RAM per process >      10.75 MB

     Estimated total dynamical RAM >      86.03 MB

     Initial potential from superposition of free atoms

     starting charge      19.8751, renormalised to      20.0000
     Starting wfcs are random

     total cpu time spent up to now is        1.6 secs

     Self-consistent Calculation

     iteration #  1     ecut=    36.00 Ry     beta= 0.70
     Davidson diagonalization with overlap
     ethr =  1.00E-02,  avg # of iterations =  8.0

     total cpu time spent up to now is       10.4 secs

     total energy              =    -148.26442327 Ry
     estimated scf accuracy    <       0.52833752 Ry

     iteration #  2     ecut=    36.00 Ry     beta= 0.70
     Davidson diagonalization with overlap
     ethr =  2.64E-03,  avg # of iterations =  2.4

     total cpu time spent up to now is       14.1 secs

     total energy              =    -148.22211823 Ry
     estimated scf accuracy    <       1.85511520 Ry

     iteration #  3     ecut=    36.00 Ry     beta= 0.70
     Davidson diagonalization with overlap
     ethr =  2.64E-03,  avg # of iterations =  1.8

     total cpu time spent up to now is       18.4 secs

     total energy              =    -148.56377770 Ry
     estimated scf accuracy    <       0.00613297 Ry

     iteration #  4     ecut=    36.00 Ry     beta= 0.70
     Davidson diagonalization with overlap
     ethr =  3.07E-05,  avg # of iterations =  4.8

     total cpu time spent up to now is       23.4 secs

     total energy              =    -148.56481236 Ry
     estimated scf accuracy    <       0.00033214 Ry

     iteration #  5     ecut=    36.00 Ry     beta= 0.70
     Davidson diagonalization with overlap
     ethr =  1.66E-06,  avg # of iterations =  3.6

     total cpu time spent up to now is       26.6 secs

     total energy              =    -148.56488475 Ry
     estimated scf accuracy    <       0.00002063 Ry

     iteration #  6     ecut=    36.00 Ry     beta= 0.70
     Davidson diagonalization with overlap
     ethr =  1.03E-07,  avg # of iterations =  1.1

     total cpu time spent up to now is       30.8 secs

     End of self-consistent calculation

     Number of k-points >= 100: set verbosity='high' to print the bands.

     the Fermi energy is    19.3409 ev

!    total energy              =    -148.56488756 Ry
     estimated scf accuracy    <       0.00000038 Ry
     smearing contrib. (-TS)   =      -0.00227203 Ry
     internal energy E=F+TS    =    -148.56261553 Ry

     The total energy is F=E-TS. E is the sum of the following terms:
     one-electron contribution =     -18.64758833 Ry
     hartree contribution      =      21.61861230 Ry
     xc contribution           =     -20.22949404 Ry
     ewald contribution        =    -131.30414546 Ry

     convergence has been achieved in   6 iterations

     Writing all to output data dir ./tmp/mob2.save/
 
     init_run     :      1.12s CPU      1.29s WALL (       1 calls)
     electrons    :     26.60s CPU     29.18s WALL (       1 calls)

     Called by init_run:
     wfcinit      :      1.11s CPU      1.25s WALL (       1 calls)
     potinit      :      0.00s CPU      0.00s WALL (       1 calls)
     hinit0       :      0.00s CPU      0.03s WALL (       1 calls)

     Called by electrons:
     c_bands      :     22.97s CPU     24.80s WALL (       6 calls)
     sum_band     :      3.58s CPU      4.33s WALL (       6 calls)
     v_of_rho     :      0.04s CPU      0.05s WALL (       7 calls)
     mix_rho      :      0.00s CPU      0.00s WALL (       6 calls)

     Called by c_bands:
     init_us_2    :      0.23s CPU      0.25s WALL (    4329 calls)
     init_us_2:cp :      0.22s CPU      0.24s WALL (    4329 calls)
     cegterg      :     21.69s CPU     23.47s WALL (    1998 calls)

     Called by *egterg:
     cdiaghg      :      4.82s CPU      5.08s WALL (    9214 calls)
     h_psi        :     15.67s CPU     17.23s WALL (    9547 calls)
     g_psi        :      0.05s CPU      0.05s WALL (    7216 calls)

     Called by h_psi:
     h_psi:calbec :      0.48s CPU      0.50s WALL (    9547 calls)
     vloc_psi     :     14.76s CPU     16.28s WALL (    9547 calls)
     add_vuspsi   :      0.32s CPU      0.34s WALL (    9547 calls)

     General routines
     calbec       :      0.45s CPU      0.48s WALL (    9547 calls)
     fft          :      0.04s CPU      0.07s WALL (      69 calls)
     ffts         :      0.00s CPU      0.00s WALL (       6 calls)
     fftw         :     16.83s CPU     18.98s WALL (  292592 calls)
 
     Parallel routines
 
     PWSCF        :     29.31s CPU     32.24s WALL

 
   This run was terminated on:  19:22:50  11Apr2022            

=------------------------------------------------------------------------------=
   JOB DONE.
=------------------------------------------------------------------------------=
