
     Program PHONON v.7.0 starts on  3Jun2022 at  3:38:38 

     This program is part of the open-source Quantum ESPRESSO suite
     for quantum simulation of materials; please cite
         "P. Giannozzi et al., J. Phys.:Condens. Matter 21 395502 (2009);
         "P. Giannozzi et al., J. Phys.:Condens. Matter 29 465901 (2017);
         "P. Giannozzi et al., J. Chem. Phys. 152 154105 (2020);
          URL http://www.quantum-espresso.org", 
     in publications or presentations arising from this work. More details at
     http://www.quantum-espresso.org/quote

     Parallel version (MPI), running on     8 processors

     MPI processes distributed on     1 nodes
     R & G space division:  proc/nbgrp/npool/nimage =       8
     6401 MiB available memory on the printing compute node when the environment starts
 
     Reading input from mob2_fonon_05.in

     Reading xml data from directory:

     ./tmp/mob2.save/

     IMPORTANT: XC functional enforced from input :
     Exchange-correlation= PBE
                           (   1   4   3   4   0   0   0)
     Any further DFT definition will be discarded
     Please, verify this is what you really want

 
     Parallelization info
     --------------------
     sticks:   dense  smooth     PW     G-vecs:    dense   smooth      PW
     Min         216      62     18                 7773     1196     204
     Max         218      63     19                 7776     1201     209
     Sum        1735     499    151                62195     9587    1655
 
     Using Slab Decomposition
 
     Reading collected, re-writing distributed wavefunctions


     Dynamical matrices for ( 3, 3, 3)  uniform grid of q-points
     (   6 q-points):
       N         xq(1)         xq(2)         xq(3) 
       1   0.000000000   0.000000000   0.000000000
       2   0.000000000   0.000000000   0.311376641
       3   0.000000000   0.384900179   0.000000000
       4   0.000000000   0.384900179   0.311376641
       5   0.333333333   0.577350269   0.000000000
       6   0.333333333   0.577350269   0.311376641

     Calculation of q =    0.3333333   0.5773503   0.0000000

     Subspace diagonalization in iterative solution of the eigenvalue problem:
     a serial algorithm will be used

 
     Parallelization info
     --------------------
     sticks:   dense  smooth     PW     G-vecs:    dense   smooth      PW
     Min         216      62     22                 7773     1196     264
     Max         218      63     24                 7776     1201     266
     Sum        1735     499    187                62195     9587    2123
 
     Using Slab Decomposition
 

     Title: 
     Phonon calc for qp05                                                       


     bravais-lattice index     =            4
     lattice parameter (alat)  =       5.8733  a.u.
     unit-cell volume          =     187.8355 (a.u.)^3
     number of atoms/cell      =            3
     number of atomic types    =            2
     number of electrons       =        19.00
     number of Kohn-Sham states=           20
     kinetic-energy cutoff     =      52.0000  Ry
     charge density cutoff     =     728.0000  Ry
     Exchange-correlation= PBE
                           (   1   4   3   4   0   0   0)

     celldm(1)=   5.873335  celldm(2)=   0.000000  celldm(3)=   1.070515
     celldm(4)=   0.000000  celldm(5)=   0.000000  celldm(6)=   0.000000

     crystal axes: (cart. coord. in units of alat)
               a(1) = (   1.000000   0.000000   0.000000 )  
               a(2) = (  -0.500000   0.866025   0.000000 )  
               a(3) = (   0.000000   0.000000   1.070515 )  

     reciprocal axes: (cart. coord. in units 2 pi/alat)
               b(1) = (  1.000000  0.577350  0.000000 )  
               b(2) = (  0.000000  1.154701  0.000000 )  
               b(3) = (  0.000000  0.000000  0.934130 )  


     PseudoPot. # 1 for Xx read from file:
     /home/marcocarmonaga/Apps/qe-7.0/pseudo/Nb1.00Mo0.00.upf
     MD5 check sum: e4b562b21cfca1bf7e2ab47e57cae993
     Pseudo is Norm-conserving, Zval = 13.0
     Generated using virtual.x code
     Using radial grid of  602 points, 12 beta functions with: 
                l(1) =   0
                l(2) =   0
                l(3) =   1
                l(4) =   1
                l(5) =   2
                l(6) =   2
                l(7) =   0
                l(8) =   0
                l(9) =   1
               l(10) =   1
               l(11) =   2
               l(12) =   2

     PseudoPot. # 2 for B  read from file:
     /home/marcocarmonaga/Apps/qe-7.0/pseudo/B_ONCV_PBE-1.2.upf
     MD5 check sum: eb3cbeacc2d324d57d903df00f564d27
     Pseudo is Norm-conserving, Zval =  3.0
     Generated using ONCVPSP code by D. R. Hamann
     Using radial grid of  602 points,  4 beta functions with: 
                l(1) =   0
                l(2) =   0
                l(3) =   1
                l(4) =   1

     atomic species   valence    mass     pseudopotential
        Mo            13.00    92.90600     Xx( 1.00)
        B              3.00    10.81000     B ( 1.00)

     24 Sym. Ops., with inversion, found



   Cartesian axes

     site n.     atom                  positions (alat units)
         1           Mo  tau(   1) = (   0.0000000   0.0000000   0.0000000  )
         2           B   tau(   2) = (   0.5000000   0.2886751   0.5352574  )
         3           B   tau(   3) = (   0.0000000   0.5773503   0.5352574  )

     number of k points=  1152  Gaussian smearing, width (Ry)=  0.0150

     Number of k-points >= 100: set verbosity='high' to print them.

     Dense  grid:    62195 G-vectors     FFT dimensions: (  54,  54,  54)

     Smooth grid:     9587 G-vectors     FFT dimensions: (  27,  27,  30)

     Estimated max dynamical RAM per process >      72.05 MB

     Estimated total dynamical RAM >     576.38 MB

     The potential is recalculated from file :
     ./tmp/_ph0/mob2.save/charge-density

     Starting wfcs are    0 atomic +   20 random wfcs

     Band Structure Calculation
     Davidson diagonalization with overlap

     ethr =  5.26E-11,  avg # of iterations = 23.7

     total cpu time spent up to now is      108.7 secs

     End of band structure calculation

     Number of k-points >= 100: set verbosity='high' to print the bands.

     the Fermi energy is    18.4714 ev

     Phonon calc for qp05                                                       

     bravais-lattice index     =            4
     lattice parameter (alat)  =       5.8733  a.u.
     unit-cell volume          =     187.8355 (a.u.)^3
     number of atoms/cell      =            3
     number of atomic types    =            2
     kinetic-energy cut-off    =      52.0000  Ry
     charge density cut-off    =     728.0000  Ry
     convergence threshold     =      1.0E-14
     beta                      =       0.7000
     number of iterations used =            4
     Exchange-correlation= PBE
                           (   1   4   3   4   0   0   0)


     celldm(1)=    5.87334  celldm(2)=    0.00000  celldm(3)=    1.07051
     celldm(4)=    0.00000  celldm(5)=    0.00000  celldm(6)=    0.00000

     crystal axes: (cart. coord. in units of alat)
               a(1) = (  1.0000  0.0000  0.0000 )  
               a(2) = ( -0.5000  0.8660  0.0000 )  
               a(3) = (  0.0000  0.0000  1.0705 )  

     reciprocal axes: (cart. coord. in units 2 pi/alat)
               b(1) = (  1.0000  0.5774  0.0000 )  
               b(2) = (  0.0000  1.1547  0.0000 )  
               b(3) = (  0.0000  0.0000  0.9341 )  


     Atoms inside the unit cell: 

     Cartesian axes

     site n.  atom      mass           positions (alat units)
        1     Mo  92.9060   tau(    1) = (    0.00000    0.00000    0.00000  )
        2     B   10.8100   tau(    2) = (    0.50000    0.28868    0.53526  )
        3     B   10.8100   tau(    3) = (    0.00000    0.57735    0.53526  )

     Computing dynamical matrix for 
                    q = (   0.3333333   0.5773503   0.0000000 )
 
     12 Sym.Ops. (no q -> -q+G )


     G cutoff =  636.1231  (   7775 G-vectors)     FFT grid: ( 54, 54, 54)
     G cutoff =  181.7495  (   1198 G-vectors)  smooth grid: ( 27, 27, 30)

     number of k points=  1152  Gaussian smearing, width (Ry)=  0.0150

     PseudoPot. # 1 for Xx read from file:
     /home/marcocarmonaga/Apps/qe-7.0/pseudo/Nb1.00Mo0.00.upf
     MD5 check sum: e4b562b21cfca1bf7e2ab47e57cae993
     Pseudo is Norm-conserving, Zval = 13.0
     Generated using virtual.x code
     Using radial grid of  602 points, 12 beta functions with: 
                l(1) =   0
                l(2) =   0
                l(3) =   1
                l(4) =   1
                l(5) =   2
                l(6) =   2
                l(7) =   0
                l(8) =   0
                l(9) =   1
               l(10) =   1
               l(11) =   2
               l(12) =   2

     PseudoPot. # 2 for B  read from file:
     /home/marcocarmonaga/Apps/qe-7.0/pseudo/B_ONCV_PBE-1.2.upf
     MD5 check sum: eb3cbeacc2d324d57d903df00f564d27
     Pseudo is Norm-conserving, Zval =  3.0
     Generated using ONCVPSP code by D. R. Hamann
     Using radial grid of  602 points,  4 beta functions with: 
                l(1) =   0
                l(2) =   0
                l(3) =   1
                l(4) =   1

     Mode symmetry, D_3h (-62m) point group:


     Atomic displacements:
     There are    6 irreducible representations

     Representation     1      1 modes -  To be done

     Representation     2      1 modes -  To be done

     Representation     3      2 modes -  To be done

     Representation     4      2 modes -  To be done

     Representation     5      1 modes -  To be done

     Representation     6      2 modes -  To be done



     Alpha used in Ewald sum =   2.8000
     PHONON       :   1m49.29s CPU   1m52.53s WALL



     Representation #   1 mode #   1

     Self-consistent Calculation

      iter #   1 total cpu time :   125.1 secs   av.it.:   6.7
      thresh= 1.000E-02 alpha_mix =  0.700 |ddv_scf|^2 =  2.035E-05

      iter #   2 total cpu time :   142.7 secs   av.it.:  12.6
      thresh= 4.512E-04 alpha_mix =  0.700 |ddv_scf|^2 =  2.801E-04

      iter #   3 total cpu time :   158.1 secs   av.it.:  10.6
      thresh= 1.674E-03 alpha_mix =  0.700 |ddv_scf|^2 =  1.141E-06

      iter #   4 total cpu time :   173.9 secs   av.it.:  11.1
      thresh= 1.068E-04 alpha_mix =  0.700 |ddv_scf|^2 =  2.826E-09

      iter #   5 total cpu time :   189.9 secs   av.it.:  11.2
      thresh= 5.316E-06 alpha_mix =  0.700 |ddv_scf|^2 =  2.311E-11

      iter #   6 total cpu time :   204.8 secs   av.it.:  10.3
      thresh= 4.808E-07 alpha_mix =  0.700 |ddv_scf|^2 =  1.822E-13

      iter #   7 total cpu time :   220.7 secs   av.it.:  11.1
      thresh= 4.269E-08 alpha_mix =  0.700 |ddv_scf|^2 =  1.838E-16

     End of self-consistent calculation

     Convergence has been achieved 


     Representation #   2 mode #   2

     Self-consistent Calculation

      iter #   1 total cpu time :   231.3 secs   av.it.:   4.7
      thresh= 1.000E-02 alpha_mix =  0.700 |ddv_scf|^2 =  1.694E-08

      iter #   2 total cpu time :   246.9 secs   av.it.:  10.8
      thresh= 1.302E-05 alpha_mix =  0.700 |ddv_scf|^2 =  1.693E-09

      iter #   3 total cpu time :   261.4 secs   av.it.:  10.0
      thresh= 4.115E-06 alpha_mix =  0.700 |ddv_scf|^2 =  2.046E-12

      iter #   4 total cpu time :   278.2 secs   av.it.:  11.9
      thresh= 1.430E-07 alpha_mix =  0.700 |ddv_scf|^2 =  2.291E-15

     End of self-consistent calculation

     Convergence has been achieved 


     Representation #   3 modes #   3   4

     Self-consistent Calculation

      iter #   1 total cpu time :   303.4 secs   av.it.:   6.7
      thresh= 1.000E-02 alpha_mix =  0.700 |ddv_scf|^2 =  1.201E-06

      iter #   2 total cpu time :   341.0 secs   av.it.:  13.7
      thresh= 1.096E-04 alpha_mix =  0.700 |ddv_scf|^2 =  2.970E-06

      iter #   3 total cpu time :   375.8 secs   av.it.:  12.5
      thresh= 1.723E-04 alpha_mix =  0.700 |ddv_scf|^2 =  4.723E-10

      iter #   4 total cpu time :   412.4 secs   av.it.:  13.2
      thresh= 2.173E-06 alpha_mix =  0.700 |ddv_scf|^2 =  3.468E-11

      iter #   5 total cpu time :   449.0 secs   av.it.:  13.4
      thresh= 5.889E-07 alpha_mix =  0.700 |ddv_scf|^2 =  2.502E-12

      iter #   6 total cpu time :   485.5 secs   av.it.:  13.3
      thresh= 1.582E-07 alpha_mix =  0.700 |ddv_scf|^2 =  1.175E-14

      iter #   7 total cpu time :   521.7 secs   av.it.:  13.1
      thresh= 1.084E-08 alpha_mix =  0.700 |ddv_scf|^2 =  4.807E-17

     End of self-consistent calculation

     Convergence has been achieved 


     Representation #   4 modes #   5   6

     Self-consistent Calculation

      iter #   1 total cpu time :   552.9 secs   av.it.:   8.9
      thresh= 1.000E-02 alpha_mix =  0.700 |ddv_scf|^2 =  2.167E-05

      iter #   2 total cpu time :   590.4 secs   av.it.:  13.6
      thresh= 4.655E-04 alpha_mix =  0.700 |ddv_scf|^2 =  4.944E-05

      iter #   3 total cpu time :   624.8 secs   av.it.:  12.4
      thresh= 7.032E-04 alpha_mix =  0.700 |ddv_scf|^2 =  6.473E-08

      iter #   4 total cpu time :   661.3 secs   av.it.:  13.3
      thresh= 2.544E-05 alpha_mix =  0.700 |ddv_scf|^2 =  1.728E-10

      iter #   5 total cpu time :   697.7 secs   av.it.:  13.2
      thresh= 1.314E-06 alpha_mix =  0.700 |ddv_scf|^2 =  4.944E-12

      iter #   6 total cpu time :   733.5 secs   av.it.:  13.0
      thresh= 2.223E-07 alpha_mix =  0.700 |ddv_scf|^2 =  1.903E-14

      iter #   7 total cpu time :   770.4 secs   av.it.:  13.4
      thresh= 1.379E-08 alpha_mix =  0.700 |ddv_scf|^2 =  1.346E-15

     End of self-consistent calculation

     Convergence has been achieved 


     Representation #   5 mode #   7

     Self-consistent Calculation

      iter #   1 total cpu time :   785.5 secs   av.it.:   8.0
      thresh= 1.000E-02 alpha_mix =  0.700 |ddv_scf|^2 =  7.419E-06

      iter #   2 total cpu time :   802.7 secs   av.it.:  12.2
      thresh= 2.724E-04 alpha_mix =  0.700 |ddv_scf|^2 =  8.160E-07

      iter #   3 total cpu time :   819.5 secs   av.it.:  12.0
      thresh= 9.033E-05 alpha_mix =  0.700 |ddv_scf|^2 =  8.099E-10

      iter #   4 total cpu time :   836.5 secs   av.it.:  12.0
      thresh= 2.846E-06 alpha_mix =  0.700 |ddv_scf|^2 =  3.440E-12

      iter #   5 total cpu time :   853.3 secs   av.it.:  12.0
      thresh= 1.855E-07 alpha_mix =  0.700 |ddv_scf|^2 =  6.800E-14

      iter #   6 total cpu time :   870.4 secs   av.it.:  12.2
      thresh= 2.608E-08 alpha_mix =  0.700 |ddv_scf|^2 =  7.217E-16

     End of self-consistent calculation

     Convergence has been achieved 


     Representation #   6 modes #   8   9

     Self-consistent Calculation

      iter #   1 total cpu time :   893.5 secs   av.it.:   5.9
      thresh= 1.000E-02 alpha_mix =  0.700 |ddv_scf|^2 =  4.648E-08

      iter #   2 total cpu time :   930.9 secs   av.it.:  13.6
      thresh= 2.156E-05 alpha_mix =  0.700 |ddv_scf|^2 =  1.590E-09

      iter #   3 total cpu time :   968.2 secs   av.it.:  13.6
      thresh= 3.988E-06 alpha_mix =  0.700 |ddv_scf|^2 =  7.251E-11

      iter #   4 total cpu time :  1001.0 secs   av.it.:  11.6
      thresh= 8.515E-07 alpha_mix =  0.700 |ddv_scf|^2 =  1.079E-13

      iter #   5 total cpu time :  1037.6 secs   av.it.:  13.2
      thresh= 3.285E-08 alpha_mix =  0.700 |ddv_scf|^2 =  2.937E-16

     End of self-consistent calculation

     Convergence has been achieved 
 
     Number of q in the star =    2
     List of q in the star:
          1   0.333333333   0.577350269   0.000000000
          2  -0.333333333  -0.577350269   0.000000000

     Diagonalizing the dynamical matrix

     q = (    0.333333333   0.577350269   0.000000000 ) 

 **************************************************************************
     freq (    1) =       5.802923 [THz] =     193.564692 [cm-1]
     freq (    2) =       6.746621 [THz] =     225.043041 [cm-1]
     freq (    3) =       6.746621 [THz] =     225.043041 [cm-1]
     freq (    4) =      14.243942 [THz] =     475.126773 [cm-1]
     freq (    5) =      14.243942 [THz] =     475.126773 [cm-1]
     freq (    6) =      17.177737 [THz] =     572.987639 [cm-1]
     freq (    7) =      20.488291 [THz] =     683.415829 [cm-1]
     freq (    8) =      20.488291 [THz] =     683.415829 [cm-1]
     freq (    9) =      23.772076 [THz] =     792.951104 [cm-1]
 **************************************************************************

     Mode symmetry, D_3h (-62m) point group:

     freq (   1-   1) =        193.6  [cm-1]   --> A''2               
     freq (   2-   3) =        225.0  [cm-1]   --> E'                 
     freq (   4-   5) =        475.1  [cm-1]   --> E''                
     freq (   6-   6) =        573.0  [cm-1]   --> A'_2               
     freq (   7-   8) =        683.4  [cm-1]   --> E'                 
     freq (   9-   9) =        793.0  [cm-1]   --> A'_1               
 
     init_run     :      0.17s CPU      0.19s WALL (       1 calls)
     electrons    :    105.47s CPU    108.45s WALL (       1 calls)

     Called by init_run:
     wfcinit      :      0.00s CPU      0.00s WALL (       1 calls)
     potinit      :      0.02s CPU      0.02s WALL (       1 calls)
     hinit0       :      0.03s CPU      0.04s WALL (       1 calls)

     Called by electrons:
     c_bands      :    105.43s CPU    108.41s WALL (       1 calls)
     v_of_rho     :      0.03s CPU      0.04s WALL (       2 calls)

     Called by c_bands:
     init_us_2    :      3.99s CPU      4.15s WALL (   29952 calls)
     init_us_2:cp :      3.88s CPU      4.06s WALL (   29952 calls)
     cegterg      :     99.38s CPU    102.17s WALL (    1846 calls)

     Called by *egterg:
     cdiaghg      :     31.50s CPU     32.29s WALL (   28473 calls)
     h_psi        :    703.46s CPU    734.60s WALL (  652988 calls)
     g_psi        :      0.27s CPU      0.28s WALL (   27321 calls)

     Called by h_psi:
     h_psi:calbec :     42.40s CPU     44.27s WALL (  652988 calls)
     vloc_psi     :    617.80s CPU    645.11s WALL (  652988 calls)
     add_vuspsi   :     35.56s CPU     37.30s WALL (  652988 calls)

     General routines
     calbec       :     73.59s CPU     76.84s WALL ( 1302153 calls)
     fft          :      0.50s CPU      0.54s WALL (     741 calls)
     ffts         :      0.67s CPU      0.69s WALL (    5350 calls)
     fftw         :    653.52s CPU    683.37s WALL ( 9768024 calls)
     interpolate  :      0.13s CPU      0.13s WALL (     112 calls)
 
     Parallel routines
 
     PHONON       :  16m34.46s CPU  17m18.46s WALL

     INITIALIZATION: 
     phq_setup    :      0.04s CPU      0.05s WALL (       1 calls)
     phq_init     :      3.16s CPU      3.17s WALL (       1 calls)
 
     phq_init     :      3.16s CPU      3.17s WALL (       1 calls)
     init_vloc    :      0.04s CPU      0.04s WALL (       2 calls)
     init_us_1    :      0.01s CPU      0.03s WALL (       2 calls)
     init_us_2    :      3.99s CPU      4.15s WALL (   29952 calls)
 
     DYNAMICAL MATRIX:
     dynmat0      :      2.64s CPU      2.65s WALL (       1 calls)
     phqscf       :    885.17s CPU    925.88s WALL (       1 calls)
     dynmatrix    :      0.00s CPU      0.00s WALL (       1 calls)
 
     phqscf       :    885.17s CPU    925.88s WALL (       1 calls)
     solve_linter :    881.26s CPU    921.89s WALL (       6 calls)
     drhodv       :      3.91s CPU      3.99s WALL (       6 calls)
 
     dynmat0      :      2.64s CPU      2.65s WALL (       1 calls)
     dynmat_us    :      2.63s CPU      2.65s WALL (       1 calls)
     d2ionq       :      0.01s CPU      0.01s WALL (       1 calls)
 
     dynmat_us    :      2.63s CPU      2.65s WALL (       1 calls)
 
     phqscf       :    885.17s CPU    925.88s WALL (       1 calls)
     solve_linter :    881.26s CPU    921.89s WALL (       6 calls)
 
     solve_linter :    881.26s CPU    921.89s WALL (       6 calls)
     dvqpsi_us    :     23.56s CPU     24.36s WALL (    5184 calls)
     sth_kernel   :    849.63s CPU    889.37s WALL (      36 calls)
     apply_dpot_b :     42.65s CPU     44.92s WALL (   26496 calls)
     ortho        :      4.83s CPU      5.06s WALL (   31680 calls)
     cgsolve      :    742.09s CPU    775.94s WALL (   31680 calls)
     incdrhoscf   :     50.05s CPU     52.91s WALL (   31680 calls)
     dv_of_drho   :      0.96s CPU      0.97s WALL (      55 calls)
     mix_pot      :      0.21s CPU      0.21s WALL (      36 calls)
     psymdvscf    :      6.18s CPU      6.23s WALL (      36 calls)
 
     dvqpsi_us    :     23.56s CPU     24.36s WALL (    5184 calls)
     dvqpsi_us_on :      7.08s CPU      7.33s WALL (    5184 calls)
 
     cgsolve      :    742.09s CPU    775.94s WALL (   31680 calls)
     ch_psi       :    719.12s CPU    751.75s WALL (  622669 calls)
 
     ch_psi       :    719.12s CPU    751.75s WALL (  622669 calls)
     h_psi        :    703.46s CPU    734.60s WALL (  652988 calls)
     last         :     62.27s CPU     65.13s WALL (  622669 calls)
 
     h_psi        :    703.46s CPU    734.60s WALL (  652988 calls)
     add_vuspsi   :     35.56s CPU     37.30s WALL (  652988 calls)
 
     incdrhoscf   :     50.05s CPU     52.91s WALL (   31680 calls)
 
 
      General routines
     calbec       :     73.59s CPU     76.84s WALL ( 1302153 calls)
     fft          :      0.50s CPU      0.54s WALL (     741 calls)
     ffts         :      0.67s CPU      0.69s WALL (    5350 calls)
     fftw         :    653.52s CPU    683.37s WALL ( 9768024 calls)
 
 
     PHONON       :  16m34.46s CPU  17m18.46s WALL

 
   This run was terminated on:   3:55:57   3Jun2022            

=------------------------------------------------------------------------------=
   JOB DONE.
=------------------------------------------------------------------------------=
