
     Program PHONON v.7.0 starts on  3Jun2022 at  3:55:57 

     This program is part of the open-source Quantum ESPRESSO suite
     for quantum simulation of materials; please cite
         "P. Giannozzi et al., J. Phys.:Condens. Matter 21 395502 (2009);
         "P. Giannozzi et al., J. Phys.:Condens. Matter 29 465901 (2017);
         "P. Giannozzi et al., J. Chem. Phys. 152 154105 (2020);
          URL http://www.quantum-espresso.org", 
     in publications or presentations arising from this work. More details at
     http://www.quantum-espresso.org/quote

     Parallel version (MPI), running on     8 processors

     MPI processes distributed on     1 nodes
     R & G space division:  proc/nbgrp/npool/nimage =       8
     6263 MiB available memory on the printing compute node when the environment starts
 
     Reading input from mob2_fonon_06.in

     Reading xml data from directory:

     ./tmp/mob2.save/

     IMPORTANT: XC functional enforced from input :
     Exchange-correlation= PBE
                           (   1   4   3   4   0   0   0)
     Any further DFT definition will be discarded
     Please, verify this is what you really want

 
     Parallelization info
     --------------------
     sticks:   dense  smooth     PW     G-vecs:    dense   smooth      PW
     Min         216      62     18                 7773     1196     204
     Max         218      63     19                 7776     1201     209
     Sum        1735     499    151                62195     9587    1655
 
     Using Slab Decomposition
 
     Reading collected, re-writing distributed wavefunctions


     Dynamical matrices for ( 3, 3, 3)  uniform grid of q-points
     (   6 q-points):
       N         xq(1)         xq(2)         xq(3) 
       1   0.000000000   0.000000000   0.000000000
       2   0.000000000   0.000000000   0.311376641
       3   0.000000000   0.384900179   0.000000000
       4   0.000000000   0.384900179   0.311376641
       5   0.333333333   0.577350269   0.000000000
       6   0.333333333   0.577350269   0.311376641

     Calculation of q =    0.3333333   0.5773503   0.3113766

     Subspace diagonalization in iterative solution of the eigenvalue problem:
     a serial algorithm will be used

 
     Parallelization info
     --------------------
     sticks:   dense  smooth     PW     G-vecs:    dense   smooth      PW
     Min         216      62     23                 7773     1196     271
     Max         218      63     24                 7776     1201     274
     Sum        1735     499    187                62195     9587    2183
 
     Using Slab Decomposition
 

     Title: 
     Phonon calc for qp06                                                       


     bravais-lattice index     =            4
     lattice parameter (alat)  =       5.8733  a.u.
     unit-cell volume          =     187.8355 (a.u.)^3
     number of atoms/cell      =            3
     number of atomic types    =            2
     number of electrons       =        19.00
     number of Kohn-Sham states=           20
     kinetic-energy cutoff     =      52.0000  Ry
     charge density cutoff     =     728.0000  Ry
     Exchange-correlation= PBE
                           (   1   4   3   4   0   0   0)

     celldm(1)=   5.873335  celldm(2)=   0.000000  celldm(3)=   1.070515
     celldm(4)=   0.000000  celldm(5)=   0.000000  celldm(6)=   0.000000

     crystal axes: (cart. coord. in units of alat)
               a(1) = (   1.000000   0.000000   0.000000 )  
               a(2) = (  -0.500000   0.866025   0.000000 )  
               a(3) = (   0.000000   0.000000   1.070515 )  

     reciprocal axes: (cart. coord. in units 2 pi/alat)
               b(1) = (  1.000000  0.577350  0.000000 )  
               b(2) = (  0.000000  1.154701  0.000000 )  
               b(3) = (  0.000000  0.000000  0.934130 )  


     PseudoPot. # 1 for Xx read from file:
     /home/marcocarmonaga/Apps/qe-7.0/pseudo/Nb1.00Mo0.00.upf
     MD5 check sum: e4b562b21cfca1bf7e2ab47e57cae993
     Pseudo is Norm-conserving, Zval = 13.0
     Generated using virtual.x code
     Using radial grid of  602 points, 12 beta functions with: 
                l(1) =   0
                l(2) =   0
                l(3) =   1
                l(4) =   1
                l(5) =   2
                l(6) =   2
                l(7) =   0
                l(8) =   0
                l(9) =   1
               l(10) =   1
               l(11) =   2
               l(12) =   2

     PseudoPot. # 2 for B  read from file:
     /home/marcocarmonaga/Apps/qe-7.0/pseudo/B_ONCV_PBE-1.2.upf
     MD5 check sum: eb3cbeacc2d324d57d903df00f564d27
     Pseudo is Norm-conserving, Zval =  3.0
     Generated using ONCVPSP code by D. R. Hamann
     Using radial grid of  602 points,  4 beta functions with: 
                l(1) =   0
                l(2) =   0
                l(3) =   1
                l(4) =   1

     atomic species   valence    mass     pseudopotential
        Mo            13.00    92.90600     Xx( 1.00)
        B              3.00    10.81000     B ( 1.00)

     24 Sym. Ops., with inversion, found



   Cartesian axes

     site n.     atom                  positions (alat units)
         1           Mo  tau(   1) = (   0.0000000   0.0000000   0.0000000  )
         2           B   tau(   2) = (   0.5000000   0.2886751   0.5352574  )
         3           B   tau(   3) = (   0.0000000   0.5773503   0.5352574  )

     number of k points=  2304  Gaussian smearing, width (Ry)=  0.0150

     Number of k-points >= 100: set verbosity='high' to print them.

     Dense  grid:    62195 G-vectors     FFT dimensions: (  54,  54,  54)

     Smooth grid:     9587 G-vectors     FFT dimensions: (  27,  27,  30)

     Estimated max dynamical RAM per process >     124.12 MB

     Estimated total dynamical RAM >     992.96 MB

     The potential is recalculated from file :
     ./tmp/_ph0/mob2.save/charge-density

     Starting wfcs are    0 atomic +   20 random wfcs

     Band Structure Calculation
     Davidson diagonalization with overlap

     ethr =  5.26E-11,  avg # of iterations = 23.7

     total cpu time spent up to now is      217.5 secs

     End of band structure calculation

     Number of k-points >= 100: set verbosity='high' to print the bands.

     the Fermi energy is    18.4714 ev

     Phonon calc for qp06                                                       

     bravais-lattice index     =            4
     lattice parameter (alat)  =       5.8733  a.u.
     unit-cell volume          =     187.8355 (a.u.)^3
     number of atoms/cell      =            3
     number of atomic types    =            2
     kinetic-energy cut-off    =      52.0000  Ry
     charge density cut-off    =     728.0000  Ry
     convergence threshold     =      1.0E-14
     beta                      =       0.7000
     number of iterations used =            4
     Exchange-correlation= PBE
                           (   1   4   3   4   0   0   0)


     celldm(1)=    5.87334  celldm(2)=    0.00000  celldm(3)=    1.07051
     celldm(4)=    0.00000  celldm(5)=    0.00000  celldm(6)=    0.00000

     crystal axes: (cart. coord. in units of alat)
               a(1) = (  1.0000  0.0000  0.0000 )  
               a(2) = ( -0.5000  0.8660  0.0000 )  
               a(3) = (  0.0000  0.0000  1.0705 )  

     reciprocal axes: (cart. coord. in units 2 pi/alat)
               b(1) = (  1.0000  0.5774  0.0000 )  
               b(2) = (  0.0000  1.1547  0.0000 )  
               b(3) = (  0.0000  0.0000  0.9341 )  


     Atoms inside the unit cell: 

     Cartesian axes

     site n.  atom      mass           positions (alat units)
        1     Mo  92.9060   tau(    1) = (    0.00000    0.00000    0.00000  )
        2     B   10.8100   tau(    2) = (    0.50000    0.28868    0.53526  )
        3     B   10.8100   tau(    3) = (    0.00000    0.57735    0.53526  )

     Computing dynamical matrix for 
                    q = (   0.3333333   0.5773503   0.3113766 )
 
      6 Sym.Ops. (no q -> -q+G )


     G cutoff =  636.1231  (   7775 G-vectors)     FFT grid: ( 54, 54, 54)
     G cutoff =  181.7495  (   1198 G-vectors)  smooth grid: ( 27, 27, 30)

     number of k points=  2304  Gaussian smearing, width (Ry)=  0.0150

     PseudoPot. # 1 for Xx read from file:
     /home/marcocarmonaga/Apps/qe-7.0/pseudo/Nb1.00Mo0.00.upf
     MD5 check sum: e4b562b21cfca1bf7e2ab47e57cae993
     Pseudo is Norm-conserving, Zval = 13.0
     Generated using virtual.x code
     Using radial grid of  602 points, 12 beta functions with: 
                l(1) =   0
                l(2) =   0
                l(3) =   1
                l(4) =   1
                l(5) =   2
                l(6) =   2
                l(7) =   0
                l(8) =   0
                l(9) =   1
               l(10) =   1
               l(11) =   2
               l(12) =   2

     PseudoPot. # 2 for B  read from file:
     /home/marcocarmonaga/Apps/qe-7.0/pseudo/B_ONCV_PBE-1.2.upf
     MD5 check sum: eb3cbeacc2d324d57d903df00f564d27
     Pseudo is Norm-conserving, Zval =  3.0
     Generated using ONCVPSP code by D. R. Hamann
     Using radial grid of  602 points,  4 beta functions with: 
                l(1) =   0
                l(2) =   0
                l(3) =   1
                l(4) =   1

     Mode symmetry, C_3v (3m)   point group:


     Atomic displacements:
     There are    6 irreducible representations

     Representation     1      1 modes -  To be done

     Representation     2      1 modes -  To be done

     Representation     3      1 modes -  To be done

     Representation     4      2 modes -  To be done

     Representation     5      2 modes -  To be done

     Representation     6      2 modes -  To be done



     Alpha used in Ewald sum =   2.8000
     PHONON       :   3m38.81s CPU   3m44.37s WALL



     Representation #   1 mode #   1

     Self-consistent Calculation

      iter #   1 total cpu time :   254.0 secs   av.it.:   8.4
      thresh= 1.000E-02 alpha_mix =  0.700 |ddv_scf|^2 =  2.986E-05

      iter #   2 total cpu time :   288.9 secs   av.it.:  12.6
      thresh= 5.464E-04 alpha_mix =  0.700 |ddv_scf|^2 =  6.127E-05

      iter #   3 total cpu time :   321.9 secs   av.it.:  11.6
      thresh= 7.828E-04 alpha_mix =  0.700 |ddv_scf|^2 =  2.233E-05

      iter #   4 total cpu time :   353.6 secs   av.it.:  11.2
      thresh= 4.726E-04 alpha_mix =  0.700 |ddv_scf|^2 =  3.191E-08

      iter #   5 total cpu time :   387.1 secs   av.it.:  11.7
      thresh= 1.786E-05 alpha_mix =  0.700 |ddv_scf|^2 =  2.308E-10

      iter #   6 total cpu time :   420.7 secs   av.it.:  12.0
      thresh= 1.519E-06 alpha_mix =  0.700 |ddv_scf|^2 =  2.208E-12

      iter #   7 total cpu time :   453.7 secs   av.it.:  11.7
      thresh= 1.486E-07 alpha_mix =  0.700 |ddv_scf|^2 =  2.932E-14

      iter #   8 total cpu time :   488.1 secs   av.it.:  12.3
      thresh= 1.712E-08 alpha_mix =  0.700 |ddv_scf|^2 =  5.058E-16

     End of self-consistent calculation

     Convergence has been achieved 


     Representation #   2 mode #   2

     Self-consistent Calculation

      iter #   1 total cpu time :   514.2 secs   av.it.:   6.9
      thresh= 1.000E-02 alpha_mix =  0.700 |ddv_scf|^2 =  6.019E-06

      iter #   2 total cpu time :   549.4 secs   av.it.:  12.6
      thresh= 2.453E-04 alpha_mix =  0.700 |ddv_scf|^2 =  3.603E-05

      iter #   3 total cpu time :   581.0 secs   av.it.:  11.1
      thresh= 6.003E-04 alpha_mix =  0.700 |ddv_scf|^2 =  1.692E-06

      iter #   4 total cpu time :   613.4 secs   av.it.:  11.4
      thresh= 1.301E-04 alpha_mix =  0.700 |ddv_scf|^2 =  9.834E-10

      iter #   5 total cpu time :   647.2 secs   av.it.:  12.1
      thresh= 3.136E-06 alpha_mix =  0.700 |ddv_scf|^2 =  8.419E-11

      iter #   6 total cpu time :   680.0 secs   av.it.:  11.6
      thresh= 9.176E-07 alpha_mix =  0.700 |ddv_scf|^2 =  1.957E-12

      iter #   7 total cpu time :   712.7 secs   av.it.:  11.6
      thresh= 1.399E-07 alpha_mix =  0.700 |ddv_scf|^2 =  3.440E-15

     End of self-consistent calculation

     Convergence has been achieved 


     Representation #   3 mode #   3

     Self-consistent Calculation

      iter #   1 total cpu time :   733.9 secs   av.it.:   4.7
      thresh= 1.000E-02 alpha_mix =  0.700 |ddv_scf|^2 =  1.681E-08

      iter #   2 total cpu time :   764.7 secs   av.it.:  10.7
      thresh= 1.297E-05 alpha_mix =  0.700 |ddv_scf|^2 =  1.690E-09

      iter #   3 total cpu time :   793.8 secs   av.it.:  10.0
      thresh= 4.111E-06 alpha_mix =  0.700 |ddv_scf|^2 =  1.781E-12

      iter #   4 total cpu time :   827.3 secs   av.it.:  11.9
      thresh= 1.335E-07 alpha_mix =  0.700 |ddv_scf|^2 =  2.060E-15

     End of self-consistent calculation

     Convergence has been achieved 


     Representation #   4 modes #   4   5

     Self-consistent Calculation

      iter #   1 total cpu time :   877.6 secs   av.it.:   6.7
      thresh= 1.000E-02 alpha_mix =  0.700 |ddv_scf|^2 =  3.481E-07

      iter #   2 total cpu time :   954.7 secs   av.it.:  14.2
      thresh= 5.900E-05 alpha_mix =  0.700 |ddv_scf|^2 =  3.947E-07

      iter #   3 total cpu time :  1027.3 secs   av.it.:  13.1
      thresh= 6.282E-05 alpha_mix =  0.700 |ddv_scf|^2 =  5.502E-09

      iter #   4 total cpu time :  1101.3 secs   av.it.:  13.5
      thresh= 7.417E-06 alpha_mix =  0.700 |ddv_scf|^2 =  1.128E-10

      iter #   5 total cpu time :  1174.7 secs   av.it.:  13.4
      thresh= 1.062E-06 alpha_mix =  0.700 |ddv_scf|^2 =  3.635E-12

      iter #   6 total cpu time :  1247.5 secs   av.it.:  13.3
      thresh= 1.906E-07 alpha_mix =  0.700 |ddv_scf|^2 =  1.029E-14

      iter #   7 total cpu time :  1324.2 secs   av.it.:  14.1
      thresh= 1.014E-08 alpha_mix =  0.700 |ddv_scf|^2 =  8.869E-17

     End of self-consistent calculation

     Convergence has been achieved 


     Representation #   5 modes #   6   7

     Self-consistent Calculation

      iter #   1 total cpu time :  1375.6 secs   av.it.:   6.9
      thresh= 1.000E-02 alpha_mix =  0.700 |ddv_scf|^2 =  5.326E-07

      iter #   2 total cpu time :  1452.4 secs   av.it.:  14.1
      thresh= 7.298E-05 alpha_mix =  0.700 |ddv_scf|^2 =  7.519E-07

      iter #   3 total cpu time :  1524.3 secs   av.it.:  13.0
      thresh= 8.671E-05 alpha_mix =  0.700 |ddv_scf|^2 =  2.526E-09

      iter #   4 total cpu time :  1599.3 secs   av.it.:  13.8
      thresh= 5.026E-06 alpha_mix =  0.700 |ddv_scf|^2 =  1.201E-10

      iter #   5 total cpu time :  1673.1 secs   av.it.:  13.5
      thresh= 1.096E-06 alpha_mix =  0.700 |ddv_scf|^2 =  3.542E-12

      iter #   6 total cpu time :  1746.0 secs   av.it.:  13.3
      thresh= 1.882E-07 alpha_mix =  0.700 |ddv_scf|^2 =  9.234E-15

     End of self-consistent calculation

     Convergence has been achieved 


     Representation #   6 modes #   8   9

     Self-consistent Calculation

      iter #   1 total cpu time :  1807.8 secs   av.it.:   8.7
      thresh= 1.000E-02 alpha_mix =  0.700 |ddv_scf|^2 =  1.056E-05

      iter #   2 total cpu time :  1883.0 secs   av.it.:  13.8
      thresh= 3.250E-04 alpha_mix =  0.700 |ddv_scf|^2 =  1.185E-05

      iter #   3 total cpu time :  1953.8 secs   av.it.:  12.8
      thresh= 3.442E-04 alpha_mix =  0.700 |ddv_scf|^2 =  1.478E-07

      iter #   4 total cpu time :  2026.1 secs   av.it.:  13.1
      thresh= 3.845E-05 alpha_mix =  0.700 |ddv_scf|^2 =  2.934E-10

      iter #   5 total cpu time :  2100.5 secs   av.it.:  13.6
      thresh= 1.713E-06 alpha_mix =  0.700 |ddv_scf|^2 =  1.267E-11

      iter #   6 total cpu time :  2172.6 secs   av.it.:  13.1
      thresh= 3.560E-07 alpha_mix =  0.700 |ddv_scf|^2 =  5.915E-14

      iter #   7 total cpu time :  2246.3 secs   av.it.:  13.4
      thresh= 2.432E-08 alpha_mix =  0.700 |ddv_scf|^2 =  2.695E-15

     End of self-consistent calculation

     Convergence has been achieved 
 
     Number of q in the star =    4
     List of q in the star:
          1   0.333333333   0.577350269   0.311376641
          2   0.333333333   0.577350269  -0.311376641
          3  -0.333333333  -0.577350269  -0.311376641
          4  -0.333333333   0.577350269   0.311376641

     Diagonalizing the dynamical matrix

     q = (    0.333333333   0.577350269   0.311376641 ) 

 **************************************************************************
     freq (    1) =       5.617822 [THz] =     187.390371 [cm-1]
     freq (    2) =       6.760554 [THz] =     225.507804 [cm-1]
     freq (    3) =       6.760554 [THz] =     225.507804 [cm-1]
     freq (    4) =      16.340659 [THz] =     545.065730 [cm-1]
     freq (    5) =      16.340659 [THz] =     545.065730 [cm-1]
     freq (    6) =      17.795179 [THz] =     593.583279 [cm-1]
     freq (    7) =      19.784992 [THz] =     659.956306 [cm-1]
     freq (    8) =      19.784992 [THz] =     659.956306 [cm-1]
     freq (    9) =      22.515606 [THz] =     751.039781 [cm-1]
 **************************************************************************

     Mode symmetry, C_3v (3m)   point group:

     freq (   1-   1) =        187.4  [cm-1]   --> A_1  L_1           
     freq (   2-   3) =        225.5  [cm-1]   --> E    L_3           
     freq (   4-   5) =        545.1  [cm-1]   --> E    L_3           
     freq (   6-   6) =        593.6  [cm-1]   --> A_2  L_2           
     freq (   7-   8) =        660.0  [cm-1]   --> E    L_3           
     freq (   9-   9) =        751.0  [cm-1]   --> A_1  L_1           
 
     init_run     :      0.19s CPU      0.20s WALL (       1 calls)
     electrons    :    211.90s CPU    217.28s WALL (       1 calls)

     Called by init_run:
     wfcinit      :      0.00s CPU      0.00s WALL (       1 calls)
     potinit      :      0.02s CPU      0.02s WALL (       1 calls)
     hinit0       :      0.03s CPU      0.04s WALL (       1 calls)

     Called by electrons:
     c_bands      :    211.81s CPU    217.19s WALL (       1 calls)
     v_of_rho     :      0.04s CPU      0.04s WALL (       2 calls)

     Called by c_bands:
     init_us_2    :      8.69s CPU      9.04s WALL (   63360 calls)
     init_us_2:cp :      8.46s CPU      8.84s WALL (   63360 calls)
     cegterg      :    199.58s CPU    204.57s WALL (    3718 calls)

     Called by *egterg:
     cdiaghg      :     63.23s CPU     64.66s WALL (   56917 calls)
     h_psi        :   1544.79s CPU   1610.69s WALL ( 1422260 calls)
     g_psi        :      0.57s CPU      0.58s WALL (   54613 calls)

     Called by h_psi:
     h_psi:calbec :     92.21s CPU     96.13s WALL ( 1422260 calls)
     vloc_psi     :   1357.08s CPU   1414.93s WALL ( 1422260 calls)
     add_vuspsi   :     78.60s CPU     82.31s WALL ( 1422260 calls)

     General routines
     calbec       :    161.34s CPU    168.35s WALL ( 2836877 calls)
     fft          :      0.54s CPU      0.57s WALL (     793 calls)
     ffts         :      1.33s CPU      1.37s WALL (   10542 calls)
     fftw         :   1431.55s CPU   1494.86s WALL (21291566 calls)
     interpolate  :      0.13s CPU      0.14s WALL (     120 calls)
 
     Parallel routines
 
     PHONON       :  35m56.21s CPU  37m28.03s WALL

     INITIALIZATION: 
     phq_setup    :      0.04s CPU      0.05s WALL (       1 calls)
     phq_init     :      6.15s CPU      6.21s WALL (       1 calls)
 
     phq_init     :      6.15s CPU      6.21s WALL (       1 calls)
     init_vloc    :      0.04s CPU      0.04s WALL (       2 calls)
     init_us_1    :      0.01s CPU      0.03s WALL (       2 calls)
     init_us_2    :      8.69s CPU      9.04s WALL (   63360 calls)
 
     DYNAMICAL MATRIX:
     dynmat0      :      5.22s CPU      5.24s WALL (       1 calls)
     phqscf       :   1937.40s CPU   2023.58s WALL (       1 calls)
     dynmatrix    :      0.00s CPU      0.00s WALL (       1 calls)
 
     phqscf       :   1937.40s CPU   2023.58s WALL (       1 calls)
     solve_linter :   1929.38s CPU   2015.44s WALL (       6 calls)
     drhodv       :      8.02s CPU      8.13s WALL (       6 calls)
 
     dynmat0      :      5.22s CPU      5.24s WALL (       1 calls)
     dynmat_us    :      5.21s CPU      5.23s WALL (       1 calls)
     d2ionq       :      0.01s CPU      0.01s WALL (       1 calls)
 
     dynmat_us    :      5.21s CPU      5.23s WALL (       1 calls)
 
     phqscf       :   1937.40s CPU   2023.58s WALL (       1 calls)
     solve_linter :   1929.38s CPU   2015.44s WALL (       6 calls)
 
     solve_linter :   1929.38s CPU   2015.44s WALL (       6 calls)
     dvqpsi_us    :     47.79s CPU     49.32s WALL (   10368 calls)
     sth_kernel   :   1875.26s CPU   1959.69s WALL (      39 calls)
     apply_dpot_b :     93.03s CPU     97.67s WALL (   57600 calls)
     ortho        :     10.57s CPU     11.07s WALL (   67968 calls)
     cgsolve      :   1642.21s CPU   1714.45s WALL (   67968 calls)
     incdrhoscf   :    107.68s CPU    113.62s WALL (   67968 calls)
     dv_of_drho   :      1.04s CPU      1.06s WALL (      59 calls)
     mix_pot      :      0.24s CPU      0.24s WALL (      39 calls)
     psymdvscf    :      3.70s CPU      3.73s WALL (      39 calls)
 
     dvqpsi_us    :     47.79s CPU     49.32s WALL (   10368 calls)
     dvqpsi_us_on :     14.72s CPU     15.21s WALL (   10368 calls)
 
     cgsolve      :   1642.21s CPU   1714.45s WALL (   67968 calls)
     ch_psi       :   1592.99s CPU   1662.57s WALL ( 1361625 calls)
 
     ch_psi       :   1592.99s CPU   1662.57s WALL ( 1361625 calls)
     h_psi        :   1544.79s CPU   1610.69s WALL ( 1422260 calls)
     last         :    139.68s CPU    145.84s WALL ( 1361625 calls)
 
     h_psi        :   1544.79s CPU   1610.69s WALL ( 1422260 calls)
     add_vuspsi   :     78.60s CPU     82.31s WALL ( 1422260 calls)
 
     incdrhoscf   :    107.68s CPU    113.62s WALL (   67968 calls)
 
 
      General routines
     calbec       :    161.34s CPU    168.35s WALL ( 2836877 calls)
     fft          :      0.54s CPU      0.57s WALL (     793 calls)
     ffts         :      1.33s CPU      1.37s WALL (   10542 calls)
     fftw         :   1431.55s CPU   1494.86s WALL (21291566 calls)
 
 
     PHONON       :  35m56.21s CPU  37m28.03s WALL

 
   This run was terminated on:   4:33:25   3Jun2022            

=------------------------------------------------------------------------------=
   JOB DONE.
=------------------------------------------------------------------------------=
