
     Program PHONON v.7.0 starts on  1Jun2022 at  3:22:39 

     This program is part of the open-source Quantum ESPRESSO suite
     for quantum simulation of materials; please cite
         "P. Giannozzi et al., J. Phys.:Condens. Matter 21 395502 (2009);
         "P. Giannozzi et al., J. Phys.:Condens. Matter 29 465901 (2017);
         "P. Giannozzi et al., J. Chem. Phys. 152 154105 (2020);
          URL http://www.quantum-espresso.org", 
     in publications or presentations arising from this work. More details at
     http://www.quantum-espresso.org/quote

     Parallel version (MPI), running on     8 processors

     MPI processes distributed on     1 nodes
     R & G space division:  proc/nbgrp/npool/nimage =       8
     5619 MiB available memory on the printing compute node when the environment starts
 
     Reading input from mob2_fonon_01.in

     Reading xml data from directory:

     ./tmp/mob2.save/

     IMPORTANT: XC functional enforced from input :
     Exchange-correlation= PBE
                           (   1   4   3   4   0   0   0)
     Any further DFT definition will be discarded
     Please, verify this is what you really want

 
     Parallelization info
     --------------------
     sticks:   dense  smooth     PW     G-vecs:    dense   smooth      PW
     Min         216      62     18                 7773     1196     204
     Max         218      63     19                 7776     1201     209
     Sum        1735     499    151                62195     9587    1655
 
     Using Slab Decomposition
 
     Reading collected, re-writing distributed wavefunctions


     Dynamical matrices for ( 3, 3, 3)  uniform grid of q-points
     (   6 q-points):
       N         xq(1)         xq(2)         xq(3) 
       1   0.000000000   0.000000000   0.000000000
       2   0.000000000   0.000000000   0.311376641
       3   0.000000000   0.384900179   0.000000000
       4   0.000000000   0.384900179   0.311376641
       5   0.333333333   0.577350269   0.000000000
       6   0.333333333   0.577350269   0.311376641

     Calculation of q =    0.0000000   0.0000000   0.0000000

     Phonon calc for qp01                                                       

     bravais-lattice index     =            4
     lattice parameter (alat)  =       5.8733  a.u.
     unit-cell volume          =     187.8355 (a.u.)^3
     number of atoms/cell      =            3
     number of atomic types    =            2
     kinetic-energy cut-off    =      52.0000  Ry
     charge density cut-off    =     728.0000  Ry
     convergence threshold     =      1.0E-14
     beta                      =       0.7000
     number of iterations used =            4
     Exchange-correlation= PBE
                           (   1   4   3   4   0   0   0)


     celldm(1)=    5.87334  celldm(2)=    0.00000  celldm(3)=    1.07051
     celldm(4)=    0.00000  celldm(5)=    0.00000  celldm(6)=    0.00000

     crystal axes: (cart. coord. in units of alat)
               a(1) = (  1.0000  0.0000  0.0000 )  
               a(2) = ( -0.5000  0.8660  0.0000 )  
               a(3) = (  0.0000  0.0000  1.0705 )  

     reciprocal axes: (cart. coord. in units 2 pi/alat)
               b(1) = (  1.0000  0.5774  0.0000 )  
               b(2) = (  0.0000  1.1547  0.0000 )  
               b(3) = (  0.0000  0.0000  0.9341 )  


     Atoms inside the unit cell: 

     Cartesian axes

     site n.  atom      mass           positions (alat units)
        1     Mo  92.9060   tau(    1) = (    0.00000    0.00000    0.00000  )
        2     B   10.8100   tau(    2) = (    0.50000    0.28868    0.53526  )
        3     B   10.8100   tau(    3) = (    0.00000    0.57735    0.53526  )

     Computing dynamical matrix for 
                    q = (   0.0000000   0.0000000   0.0000000 )
 
     25 Sym.Ops. (with q -> -q+G )


     G cutoff =  636.1231  (   7775 G-vectors)     FFT grid: ( 54, 54, 54)
     G cutoff =  181.7495  (   1198 G-vectors)  smooth grid: ( 27, 27, 30)

     number of k points=   333  Gaussian smearing, width (Ry)=  0.0150

     PseudoPot. # 1 for Xx read from file:
     /home/marcocarmonaga/Apps/qe-7.0/pseudo/Nb1.00Mo0.00.upf
     MD5 check sum: e4b562b21cfca1bf7e2ab47e57cae993
     Pseudo is Norm-conserving, Zval = 13.0
     Generated using virtual.x code
     Using radial grid of  602 points, 12 beta functions with: 
                l(1) =   0
                l(2) =   0
                l(3) =   1
                l(4) =   1
                l(5) =   2
                l(6) =   2
                l(7) =   0
                l(8) =   0
                l(9) =   1
               l(10) =   1
               l(11) =   2
               l(12) =   2

     PseudoPot. # 2 for B  read from file:
     /home/marcocarmonaga/Apps/qe-7.0/pseudo/B_ONCV_PBE-1.2.upf
     MD5 check sum: eb3cbeacc2d324d57d903df00f564d27
     Pseudo is Norm-conserving, Zval =  3.0
     Generated using ONCVPSP code by D. R. Hamann
     Using radial grid of  602 points,  4 beta functions with: 
                l(1) =   0
                l(2) =   0
                l(3) =   1
                l(4) =   1

     Mode symmetry, D_6h(6/mmm) point group:


     Atomic displacements:
     There are    6 irreducible representations

     Representation     1      1 modes -  To be done

     Representation     2      2 modes -  To be done

     Representation     3      1 modes -  To be done

     Representation     4      1 modes -  To be done

     Representation     5      2 modes -  To be done

     Representation     6      2 modes -  To be done



     Alpha used in Ewald sum =   2.8000
     PHONON       :      2.28s CPU      2.39s WALL



     Representation #   1 mode #   1

     Self-consistent Calculation
 
     Pert. #  1: Fermi energy shift (Ry) =    -5.7824E-19     0.0000E+00

      iter #   1 total cpu time :     9.0 secs   av.it.:   4.8
      thresh= 1.000E-02 alpha_mix =  0.700 |ddv_scf|^2 =  3.720E-08
 
     Pert. #  1: Fermi energy shift (Ry) =    -5.7824E-19     0.0000E+00

      iter #   2 total cpu time :    18.2 secs   av.it.:  11.2
      thresh= 1.929E-05 alpha_mix =  0.700 |ddv_scf|^2 =  1.775E-09
 
     Pert. #  1: Fermi energy shift (Ry) =    -5.7824E-19     0.0000E+00

      iter #   3 total cpu time :    26.4 secs   av.it.:   9.6
      thresh= 4.213E-06 alpha_mix =  0.700 |ddv_scf|^2 =  7.899E-11
 
     Pert. #  1: Fermi energy shift (Ry) =     0.0000E+00     0.0000E+00

      iter #   4 total cpu time :    34.0 secs   av.it.:   8.6
      thresh= 8.888E-07 alpha_mix =  0.700 |ddv_scf|^2 =  6.568E-15

     End of self-consistent calculation

     Convergence has been achieved 


     Representation #   2 modes #   2   3

     Self-consistent Calculation
 
     Pert. #  1: Fermi energy shift (Ry) =     1.1565E-18    -1.0714E-40
     Pert. #  2: Fermi energy shift (Ry) =    -1.1565E-18    -2.4489E-40

      iter #   1 total cpu time :    47.9 secs   av.it.:   5.8
      thresh= 1.000E-02 alpha_mix =  0.700 |ddv_scf|^2 =  6.397E-08
 
     Pert. #  1: Fermi energy shift (Ry) =     5.7824E-19     1.9132E-42
     Pert. #  2: Fermi energy shift (Ry) =     2.1684E-19    -2.2959E-41

      iter #   2 total cpu time :    68.1 secs   av.it.:  12.8
      thresh= 2.529E-05 alpha_mix =  0.700 |ddv_scf|^2 =  1.784E-09
 
     Pert. #  1: Fermi energy shift (Ry) =     1.4456E-19    -2.6785E-41
     Pert. #  2: Fermi energy shift (Ry) =     1.3010E-18    -2.0089E-41

      iter #   3 total cpu time :    88.3 secs   av.it.:  12.7
      thresh= 4.223E-06 alpha_mix =  0.700 |ddv_scf|^2 =  6.885E-11
 
     Pert. #  1: Fermi energy shift (Ry) =    -5.7824E-19    -2.6785E-41
     Pert. #  2: Fermi energy shift (Ry) =    -4.3368E-19    -2.0089E-41

      iter #   4 total cpu time :   106.6 secs   av.it.:  11.4
      thresh= 8.298E-07 alpha_mix =  0.700 |ddv_scf|^2 =  5.725E-13
 
     Pert. #  1: Fermi energy shift (Ry) =     1.4456E-19    -2.6785E-41
     Pert. #  2: Fermi energy shift (Ry) =     7.2280E-19    -2.0089E-41

      iter #   5 total cpu time :   126.0 secs   av.it.:  12.1
      thresh= 7.567E-08 alpha_mix =  0.700 |ddv_scf|^2 =  4.419E-16

     End of self-consistent calculation

     Convergence has been achieved 


     Representation #   3 mode #   4

     Self-consistent Calculation
 
     Pert. #  1: Fermi energy shift (Ry) =    -5.5145E-25     0.0000E+00

      iter #   1 total cpu time :   135.4 secs   av.it.:   8.0
      thresh= 1.000E-02 alpha_mix =  0.700 |ddv_scf|^2 =  1.490E-05
 
     Pert. #  1: Fermi energy shift (Ry) =    -2.7573E-25     0.0000E+00

      iter #   2 total cpu time :   144.9 secs   av.it.:  11.8
      thresh= 3.860E-04 alpha_mix =  0.700 |ddv_scf|^2 =  4.788E-06
 
     Pert. #  1: Fermi energy shift (Ry) =     0.0000E+00     0.0000E+00

      iter #   3 total cpu time :   154.2 secs   av.it.:  11.3
      thresh= 2.188E-04 alpha_mix =  0.700 |ddv_scf|^2 =  1.012E-09
 
     Pert. #  1: Fermi energy shift (Ry) =    -1.6544E-24     0.0000E+00

      iter #   4 total cpu time :   163.9 secs   av.it.:  11.9
      thresh= 3.181E-06 alpha_mix =  0.700 |ddv_scf|^2 =  1.306E-10
 
     Pert. #  1: Fermi energy shift (Ry) =     1.6544E-24     0.0000E+00

      iter #   5 total cpu time :   173.2 secs   av.it.:  11.4
      thresh= 1.143E-06 alpha_mix =  0.700 |ddv_scf|^2 =  5.679E-13
 
     Pert. #  1: Fermi energy shift (Ry) =     0.0000E+00     0.0000E+00

      iter #   6 total cpu time :   182.6 secs   av.it.:  11.6
      thresh= 7.536E-08 alpha_mix =  0.700 |ddv_scf|^2 =  1.769E-15

     End of self-consistent calculation

     Convergence has been achieved 


     Representation #   4 mode #   5

     Self-consistent Calculation
 
     Pert. #  1: Fermi energy shift (Ry) =    -2.7573E-25    -2.5077E-37

      iter #   1 total cpu time :   190.3 secs   av.it.:   6.2
      thresh= 1.000E-02 alpha_mix =  0.700 |ddv_scf|^2 =  9.692E-07
 
     Pert. #  1: Fermi energy shift (Ry) =     2.7573E-25     0.0000E+00

      iter #   2 total cpu time :   199.8 secs   av.it.:  11.7
      thresh= 9.845E-05 alpha_mix =  0.700 |ddv_scf|^2 =  2.594E-07
 
     Pert. #  1: Fermi energy shift (Ry) =     8.2718E-25     0.0000E+00

      iter #   3 total cpu time :   209.1 secs   av.it.:  11.4
      thresh= 5.094E-05 alpha_mix =  0.700 |ddv_scf|^2 =  8.151E-10
 
     Pert. #  1: Fermi energy shift (Ry) =    -8.2718E-25    -9.7958E-40

      iter #   4 total cpu time :   218.3 secs   av.it.:  11.2
      thresh= 2.855E-06 alpha_mix =  0.700 |ddv_scf|^2 =  3.867E-11
 
     Pert. #  1: Fermi energy shift (Ry) =    -8.2718E-25     4.8979E-40

      iter #   5 total cpu time :   227.2 secs   av.it.:  10.7
      thresh= 6.219E-07 alpha_mix =  0.700 |ddv_scf|^2 =  5.304E-15

     End of self-consistent calculation

     Convergence has been achieved 


     Representation #   5 modes #   6   7

     Self-consistent Calculation
 
     Pert. #  1: Fermi energy shift (Ry) =    -3.5004E-26    -1.5673E-38
     Pert. #  2: Fermi energy shift (Ry) =    -3.2312E-26     1.1755E-38

      iter #   1 total cpu time :   240.4 secs   av.it.:   5.3
      thresh= 1.000E-02 alpha_mix =  0.700 |ddv_scf|^2 =  2.113E-08
 
     Pert. #  1: Fermi energy shift (Ry) =     6.0315E-26     9.7958E-40
     Pert. #  2: Fermi energy shift (Ry) =     2.3695E-25     2.4489E-40

      iter #   2 total cpu time :   260.6 secs   av.it.:  12.8
      thresh= 1.453E-05 alpha_mix =  0.700 |ddv_scf|^2 =  1.165E-09
 
     Pert. #  1: Fermi energy shift (Ry) =    -1.1201E-25    -4.8979E-40
     Pert. #  2: Fermi energy shift (Ry) =    -2.8865E-25    -4.8979E-40

      iter #   3 total cpu time :   280.7 secs   av.it.:  12.6
      thresh= 3.413E-06 alpha_mix =  0.700 |ddv_scf|^2 =  8.828E-11
 
     Pert. #  1: Fermi energy shift (Ry) =     2.5849E-26    -4.8979E-40
     Pert. #  2: Fermi energy shift (Ry) =     1.1201E-25    -4.8979E-40

      iter #   4 total cpu time :   300.1 secs   av.it.:  12.2
      thresh= 9.395E-07 alpha_mix =  0.700 |ddv_scf|^2 =  1.985E-12
 
     Pert. #  1: Fermi energy shift (Ry) =     2.6711E-25    -4.8979E-40
     Pert. #  2: Fermi energy shift (Ry) =     4.7391E-26    -4.8979E-40

      iter #   5 total cpu time :   319.7 secs   av.it.:  12.3
      thresh= 1.409E-07 alpha_mix =  0.700 |ddv_scf|^2 =  5.733E-16

     End of self-consistent calculation

     Convergence has been achieved 


     Representation #   6 modes #   8   9

     Self-consistent Calculation
 
     Pert. #  1: Fermi energy shift (Ry) =     0.0000E+00     9.4040E-38
     Pert. #  2: Fermi energy shift (Ry) =     2.7573E-24    -1.0971E-37

      iter #   1 total cpu time :   337.0 secs   av.it.:   7.8
      thresh= 1.000E-02 alpha_mix =  0.700 |ddv_scf|^2 =  1.482E-06
 
     Pert. #  1: Fermi energy shift (Ry) =     5.5145E-25     0.0000E+00
     Pert. #  2: Fermi energy shift (Ry) =     4.1359E-25     3.0612E-41

      iter #   2 total cpu time :   357.1 secs   av.it.:  12.8
      thresh= 1.217E-04 alpha_mix =  0.700 |ddv_scf|^2 =  1.351E-07
 
     Pert. #  1: Fermi energy shift (Ry) =    -5.5145E-25    -1.7143E-39
     Pert. #  2: Fermi energy shift (Ry) =     8.2718E-25     0.0000E+00

      iter #   3 total cpu time :   377.1 secs   av.it.:  12.6
      thresh= 3.676E-05 alpha_mix =  0.700 |ddv_scf|^2 =  2.259E-10
 
     Pert. #  1: Fermi energy shift (Ry) =    -2.7573E-25    -1.2245E-39
     Pert. #  2: Fermi energy shift (Ry) =    -1.3786E-24     0.0000E+00

      iter #   4 total cpu time :   397.3 secs   av.it.:  12.7
      thresh= 1.503E-06 alpha_mix =  0.700 |ddv_scf|^2 =  3.167E-12
 
     Pert. #  1: Fermi energy shift (Ry) =     1.3786E-24    -1.2245E-39
     Pert. #  2: Fermi energy shift (Ry) =     5.5145E-25     0.0000E+00

      iter #   5 total cpu time :   416.6 secs   av.it.:  12.1
      thresh= 1.780E-07 alpha_mix =  0.700 |ddv_scf|^2 =  5.395E-14
 
     Pert. #  1: Fermi energy shift (Ry) =     2.7573E-25    -1.2245E-39
     Pert. #  2: Fermi energy shift (Ry) =    -2.7573E-25     0.0000E+00

      iter #   6 total cpu time :   436.7 secs   av.it.:  12.7
      thresh= 2.323E-08 alpha_mix =  0.700 |ddv_scf|^2 =  1.025E-16

     End of self-consistent calculation

     Convergence has been achieved 
 
     Number of q in the star =    1
     List of q in the star:
          1   0.000000000   0.000000000   0.000000000

     Diagonalizing the dynamical matrix

     q = (    0.000000000   0.000000000   0.000000000 ) 

 **************************************************************************
     freq (    1) =       0.492657 [THz] =      16.433268 [cm-1]
     freq (    2) =       0.492657 [THz] =      16.433268 [cm-1]
     freq (    3) =       0.572846 [THz] =      19.108078 [cm-1]
     freq (    4) =      12.419297 [THz] =     414.263144 [cm-1]
     freq (    5) =      12.419297 [THz] =     414.263144 [cm-1]
     freq (    6) =      14.176729 [THz] =     472.884792 [cm-1]
     freq (    7) =      16.341449 [THz] =     545.092051 [cm-1]
     freq (    8) =      23.378777 [THz] =     779.832074 [cm-1]
     freq (    9) =      23.378777 [THz] =     779.832074 [cm-1]
 **************************************************************************

     Mode symmetry, D_6h(6/mmm) point group:

     freq (   1-   2) =         16.4  [cm-1]   --> E_1u            I  
     freq (   3-   3) =         19.1  [cm-1]   --> A_2u            I  
     freq (   4-   5) =        414.3  [cm-1]   --> E_1u            I  
     freq (   6-   6) =        472.9  [cm-1]   --> A_2u            I  
     freq (   7-   7) =        545.1  [cm-1]   --> B_1g               
     freq (   8-   9) =        779.8  [cm-1]   --> E_2g            R  
 
     PHONON       :   6m59.84s CPU   7m17.23s WALL

     INITIALIZATION: 
     phq_setup    :      0.03s CPU      0.04s WALL (       1 calls)
     phq_init     :      1.77s CPU      1.78s WALL (       1 calls)
 
     phq_init     :      1.77s CPU      1.78s WALL (       1 calls)
     init_vloc    :      0.02s CPU      0.02s WALL (       1 calls)
     init_us_1    :      0.01s CPU      0.01s WALL (       1 calls)
     init_us_2    :      2.43s CPU      2.50s WALL (   16983 calls)
 
     DYNAMICAL MATRIX:
     dynmat0      :      1.50s CPU      1.51s WALL (       1 calls)
     phqscf       :    417.55s CPU    434.82s WALL (       1 calls)
     dynmatrix    :      0.00s CPU      0.00s WALL (       1 calls)
 
     phqscf       :    417.55s CPU    434.82s WALL (       1 calls)
     solve_linter :    415.32s CPU    432.56s WALL (       6 calls)
     drhodv       :      2.23s CPU      2.25s WALL (       6 calls)
 
     dynmat0      :      1.50s CPU      1.51s WALL (       1 calls)
     dynmat_us    :      1.49s CPU      1.50s WALL (       1 calls)
     d2ionq       :      0.01s CPU      0.01s WALL (       1 calls)
 
     dynmat_us    :      1.49s CPU      1.50s WALL (       1 calls)
 
     phqscf       :    417.55s CPU    434.82s WALL (       1 calls)
     solve_linter :    415.32s CPU    432.56s WALL (       6 calls)
 
     solve_linter :    415.32s CPU    432.56s WALL (       6 calls)
     dvqpsi_us    :     13.46s CPU     13.82s WALL (    2997 calls)
     sth_kernel   :    385.88s CPU    402.54s WALL (      31 calls)
     apply_dpot_b :     19.88s CPU     20.77s WALL (   12654 calls)
     ortho        :      2.26s CPU      2.37s WALL (   15651 calls)
     cgsolve      :    335.08s CPU    349.33s WALL (   15651 calls)
     incdrhoscf   :     24.30s CPU     25.51s WALL (   15651 calls)
     dv_of_drho   :      0.84s CPU      0.90s WALL (      47 calls)
     mix_pot      :      0.16s CPU      0.16s WALL (      31 calls)
     ef_shift     :      0.06s CPU      0.08s WALL (      31 calls)
     ef_shift_wfc :      0.16s CPU      0.16s WALL (       6 calls)
     localdos     :      3.65s CPU      3.70s WALL (       6 calls)
     psymdvscf    :     10.61s CPU     10.68s WALL (      31 calls)
 
     dvqpsi_us    :     13.46s CPU     13.82s WALL (    2997 calls)
     dvqpsi_us_on :      4.15s CPU      4.27s WALL (    2997 calls)
 
     cgsolve      :    335.08s CPU    349.33s WALL (   15651 calls)
     ch_psi       :    324.68s CPU    338.43s WALL (  276085 calls)
 
     ch_psi       :    324.68s CPU    338.43s WALL (  276085 calls)
     h_psi        :    291.94s CPU    304.36s WALL (  276085 calls)
     last         :     27.84s CPU     29.03s WALL (  276085 calls)
 
     h_psi        :    291.94s CPU    304.36s WALL (  276085 calls)
     add_vuspsi   :     15.46s CPU     16.17s WALL (  276085 calls)
 
     incdrhoscf   :     24.30s CPU     25.51s WALL (   15651 calls)
 
 
      General routines
     calbec       :     32.50s CPU     33.87s WALL (  569486 calls)
     fft          :      0.51s CPU      0.57s WALL (     726 calls)
     ffts         :      2.17s CPU      2.21s WALL (   23024 calls)
     fftw         :    276.49s CPU    288.55s WALL ( 4242378 calls)
 
 
     PHONON       :   6m59.84s CPU   7m17.23s WALL

 
   This run was terminated on:   3:29:57   1Jun2022            

=------------------------------------------------------------------------------=
   JOB DONE.
=------------------------------------------------------------------------------=
