
     Program PHONON v.7.0 starts on  3Jun2022 at  0:57:35 

     This program is part of the open-source Quantum ESPRESSO suite
     for quantum simulation of materials; please cite
         "P. Giannozzi et al., J. Phys.:Condens. Matter 21 395502 (2009);
         "P. Giannozzi et al., J. Phys.:Condens. Matter 29 465901 (2017);
         "P. Giannozzi et al., J. Chem. Phys. 152 154105 (2020);
          URL http://www.quantum-espresso.org", 
     in publications or presentations arising from this work. More details at
     http://www.quantum-espresso.org/quote

     Parallel version (MPI), running on     8 processors

     MPI processes distributed on     1 nodes
     R & G space division:  proc/nbgrp/npool/nimage =       8
     2075 MiB available memory on the printing compute node when the environment starts
 
     Reading input from mob2_fonon_04.in

     Reading xml data from directory:

     ./tmp/mob2.save/

     IMPORTANT: XC functional enforced from input :
     Exchange-correlation= PBE
                           (   1   4   3   4   0   0   0)
     Any further DFT definition will be discarded
     Please, verify this is what you really want

 
     Parallelization info
     --------------------
     sticks:   dense  smooth     PW     G-vecs:    dense   smooth      PW
     Min         216      62     18                 7773     1196     204
     Max         218      63     19                 7776     1201     209
     Sum        1735     499    151                62195     9587    1655
 
     Using Slab Decomposition
 
     Reading collected, re-writing distributed wavefunctions


     Dynamical matrices for ( 3, 3, 3)  uniform grid of q-points
     (   6 q-points):
       N         xq(1)         xq(2)         xq(3) 
       1   0.000000000   0.000000000   0.000000000
       2   0.000000000   0.000000000   0.311376641
       3   0.000000000   0.384900179   0.000000000
       4   0.000000000   0.384900179   0.311376641
       5   0.333333333   0.577350269   0.000000000
       6   0.333333333   0.577350269   0.311376641

     Calculation of q =    0.0000000   0.3849002   0.3113766

     Subspace diagonalization in iterative solution of the eigenvalue problem:
     a serial algorithm will be used

 
     Parallelization info
     --------------------
     sticks:   dense  smooth     PW     G-vecs:    dense   smooth      PW
     Min         216      62     21                 7773     1196     245
     Max         218      63     22                 7776     1201     249
     Sum        1735     499    169                62195     9587    1973
 
     Using Slab Decomposition
 

     Title: 
     Phonon calc for qp04                                                       


     bravais-lattice index     =            4
     lattice parameter (alat)  =       5.8733  a.u.
     unit-cell volume          =     187.8355 (a.u.)^3
     number of atoms/cell      =            3
     number of atomic types    =            2
     number of electrons       =        19.00
     number of Kohn-Sham states=           20
     kinetic-energy cutoff     =      52.0000  Ry
     charge density cutoff     =     728.0000  Ry
     Exchange-correlation= PBE
                           (   1   4   3   4   0   0   0)

     celldm(1)=   5.873335  celldm(2)=   0.000000  celldm(3)=   1.070515
     celldm(4)=   0.000000  celldm(5)=   0.000000  celldm(6)=   0.000000

     crystal axes: (cart. coord. in units of alat)
               a(1) = (   1.000000   0.000000   0.000000 )  
               a(2) = (  -0.500000   0.866025   0.000000 )  
               a(3) = (   0.000000   0.000000   1.070515 )  

     reciprocal axes: (cart. coord. in units 2 pi/alat)
               b(1) = (  1.000000  0.577350  0.000000 )  
               b(2) = (  0.000000  1.154701  0.000000 )  
               b(3) = (  0.000000  0.000000  0.934130 )  


     PseudoPot. # 1 for Xx read from file:
     /home/marcocarmonaga/Apps/qe-7.0/pseudo/Nb1.00Mo0.00.upf
     MD5 check sum: e4b562b21cfca1bf7e2ab47e57cae993
     Pseudo is Norm-conserving, Zval = 13.0
     Generated using virtual.x code
     Using radial grid of  602 points, 12 beta functions with: 
                l(1) =   0
                l(2) =   0
                l(3) =   1
                l(4) =   1
                l(5) =   2
                l(6) =   2
                l(7) =   0
                l(8) =   0
                l(9) =   1
               l(10) =   1
               l(11) =   2
               l(12) =   2

     PseudoPot. # 2 for B  read from file:
     /home/marcocarmonaga/Apps/qe-7.0/pseudo/B_ONCV_PBE-1.2.upf
     MD5 check sum: eb3cbeacc2d324d57d903df00f564d27
     Pseudo is Norm-conserving, Zval =  3.0
     Generated using ONCVPSP code by D. R. Hamann
     Using radial grid of  602 points,  4 beta functions with: 
                l(1) =   0
                l(2) =   0
                l(3) =   1
                l(4) =   1

     atomic species   valence    mass     pseudopotential
        Mo            13.00    92.90600     Xx( 1.00)
        B              3.00    10.81000     B ( 1.00)

     24 Sym. Ops., with inversion, found



   Cartesian axes

     site n.     atom                  positions (alat units)
         1           Mo  tau(   1) = (   0.0000000   0.0000000   0.0000000  )
         2           B   tau(   2) = (   0.5000000   0.2886751   0.5352574  )
         3           B   tau(   3) = (   0.0000000   0.5773503   0.5352574  )

     number of k points=  6156  Gaussian smearing, width (Ry)=  0.0150

     Number of k-points >= 100: set verbosity='high' to print them.

     Dense  grid:    62195 G-vectors     FFT dimensions: (  54,  54,  54)

     Smooth grid:     9587 G-vectors     FFT dimensions: (  27,  27,  30)

     Estimated max dynamical RAM per process >     297.95 MB

     Estimated total dynamical RAM >       2.33 GB

     The potential is recalculated from file :
     ./tmp/_ph0/mob2.save/charge-density

     Starting wfcs are    0 atomic +   20 random wfcs

     Band Structure Calculation
     Davidson diagonalization with overlap

     ethr =  5.26E-11,  avg # of iterations = 23.7

     total cpu time spent up to now is      531.3 secs

     End of band structure calculation

     Number of k-points >= 100: set verbosity='high' to print the bands.

     the Fermi energy is    18.4714 ev

     Phonon calc for qp04                                                       

     bravais-lattice index     =            4
     lattice parameter (alat)  =       5.8733  a.u.
     unit-cell volume          =     187.8355 (a.u.)^3
     number of atoms/cell      =            3
     number of atomic types    =            2
     kinetic-energy cut-off    =      52.0000  Ry
     charge density cut-off    =     728.0000  Ry
     convergence threshold     =      1.0E-14
     beta                      =       0.7000
     number of iterations used =            4
     Exchange-correlation= PBE
                           (   1   4   3   4   0   0   0)


     celldm(1)=    5.87334  celldm(2)=    0.00000  celldm(3)=    1.07051
     celldm(4)=    0.00000  celldm(5)=    0.00000  celldm(6)=    0.00000

     crystal axes: (cart. coord. in units of alat)
               a(1) = (  1.0000  0.0000  0.0000 )  
               a(2) = ( -0.5000  0.8660  0.0000 )  
               a(3) = (  0.0000  0.0000  1.0705 )  

     reciprocal axes: (cart. coord. in units 2 pi/alat)
               b(1) = (  1.0000  0.5774  0.0000 )  
               b(2) = (  0.0000  1.1547  0.0000 )  
               b(3) = (  0.0000  0.0000  0.9341 )  


     Atoms inside the unit cell: 

     Cartesian axes

     site n.  atom      mass           positions (alat units)
        1     Mo  92.9060   tau(    1) = (    0.00000    0.00000    0.00000  )
        2     B   10.8100   tau(    2) = (    0.50000    0.28868    0.53526  )
        3     B   10.8100   tau(    3) = (    0.00000    0.57735    0.53526  )

     Computing dynamical matrix for 
                    q = (   0.0000000   0.3849002   0.3113766 )
 
      2 Sym.Ops. (no q -> -q+G )


     G cutoff =  636.1231  (   7775 G-vectors)     FFT grid: ( 54, 54, 54)
     G cutoff =  181.7495  (   1198 G-vectors)  smooth grid: ( 27, 27, 30)

     number of k points=  6156  Gaussian smearing, width (Ry)=  0.0150

     PseudoPot. # 1 for Xx read from file:
     /home/marcocarmonaga/Apps/qe-7.0/pseudo/Nb1.00Mo0.00.upf
     MD5 check sum: e4b562b21cfca1bf7e2ab47e57cae993
     Pseudo is Norm-conserving, Zval = 13.0
     Generated using virtual.x code
     Using radial grid of  602 points, 12 beta functions with: 
                l(1) =   0
                l(2) =   0
                l(3) =   1
                l(4) =   1
                l(5) =   2
                l(6) =   2
                l(7) =   0
                l(8) =   0
                l(9) =   1
               l(10) =   1
               l(11) =   2
               l(12) =   2

     PseudoPot. # 2 for B  read from file:
     /home/marcocarmonaga/Apps/qe-7.0/pseudo/B_ONCV_PBE-1.2.upf
     MD5 check sum: eb3cbeacc2d324d57d903df00f564d27
     Pseudo is Norm-conserving, Zval =  3.0
     Generated using ONCVPSP code by D. R. Hamann
     Using radial grid of  602 points,  4 beta functions with: 
                l(1) =   0
                l(2) =   0
                l(3) =   1
                l(4) =   1

     Mode symmetry, C_s (m)     point group:


     Atomic displacements:
     There are    9 irreducible representations

     Representation     1      1 modes -  To be done

     Representation     2      1 modes -  To be done

     Representation     3      1 modes -  To be done

     Representation     4      1 modes -  To be done

     Representation     5      1 modes -  To be done

     Representation     6      1 modes -  To be done

     Representation     7      1 modes -  To be done

     Representation     8      1 modes -  To be done

     Representation     9      1 modes -  To be done



     Alpha used in Ewald sum =   2.8000
     PHONON       :   8m54.09s CPU   9m 9.30s WALL



     Representation #   1 mode #   1

     Self-consistent Calculation

      iter #   1 total cpu time :   625.0 secs   av.it.:   7.1
      thresh= 1.000E-02 alpha_mix =  0.700 |ddv_scf|^2 =  1.456E-05

      iter #   2 total cpu time :   723.2 secs   av.it.:  13.0
      thresh= 3.816E-04 alpha_mix =  0.700 |ddv_scf|^2 =  2.576E-04

      iter #   3 total cpu time :   804.0 secs   av.it.:  10.6
      thresh= 1.605E-03 alpha_mix =  0.700 |ddv_scf|^2 =  3.920E-06

      iter #   4 total cpu time :   891.4 secs   av.it.:  11.7
      thresh= 1.980E-04 alpha_mix =  0.700 |ddv_scf|^2 =  9.211E-08

      iter #   5 total cpu time :   982.6 secs   av.it.:  12.2
      thresh= 3.035E-05 alpha_mix =  0.700 |ddv_scf|^2 =  4.255E-09

      iter #   6 total cpu time :  1073.3 secs   av.it.:  12.2
      thresh= 6.523E-06 alpha_mix =  0.700 |ddv_scf|^2 =  6.973E-11

      iter #   7 total cpu time :  1167.8 secs   av.it.:  12.9
      thresh= 8.350E-07 alpha_mix =  0.700 |ddv_scf|^2 =  1.112E-11

      iter #   8 total cpu time :  1262.1 secs   av.it.:  12.8
      thresh= 3.335E-07 alpha_mix =  0.700 |ddv_scf|^2 =  9.576E-12

      iter #   9 total cpu time :  1351.4 secs   av.it.:  12.0
      thresh= 3.095E-07 alpha_mix =  0.700 |ddv_scf|^2 =  1.669E-11

      iter #  10 total cpu time :  1438.4 secs   av.it.:  11.6
      thresh= 4.086E-07 alpha_mix =  0.700 |ddv_scf|^2 =  5.039E-12

      iter #  11 total cpu time :  1525.1 secs   av.it.:  11.6
      thresh= 2.245E-07 alpha_mix =  0.700 |ddv_scf|^2 =  4.829E-13

      iter #  12 total cpu time :  1615.1 secs   av.it.:  12.1
      thresh= 6.949E-08 alpha_mix =  0.700 |ddv_scf|^2 =  5.025E-14

      iter #  13 total cpu time :  1704.5 secs   av.it.:  12.0
      thresh= 2.242E-08 alpha_mix =  0.700 |ddv_scf|^2 =  9.536E-14

      iter #  14 total cpu time :  1787.5 secs   av.it.:  10.9
      thresh= 3.088E-08 alpha_mix =  0.700 |ddv_scf|^2 =  5.227E-15

     End of self-consistent calculation

     Convergence has been achieved 


     Representation #   2 mode #   2

     Self-consistent Calculation

      iter #   1 total cpu time :  1883.8 secs   av.it.:   9.0
      thresh= 1.000E-02 alpha_mix =  0.700 |ddv_scf|^2 =  2.167E-04

      iter #   2 total cpu time :  1979.6 secs   av.it.:  12.9
      thresh= 1.472E-03 alpha_mix =  0.700 |ddv_scf|^2 =  3.278E-03

      iter #   3 total cpu time :  2060.6 secs   av.it.:  10.6
      thresh= 5.725E-03 alpha_mix =  0.700 |ddv_scf|^2 =  9.805E-05

      iter #   4 total cpu time :  2146.4 secs   av.it.:  11.4
      thresh= 9.902E-04 alpha_mix =  0.700 |ddv_scf|^2 =  1.646E-06

      iter #   5 total cpu time :  2235.9 secs   av.it.:  12.0
      thresh= 1.283E-04 alpha_mix =  0.700 |ddv_scf|^2 =  4.711E-08

      iter #   6 total cpu time :  2326.4 secs   av.it.:  12.2
      thresh= 2.170E-05 alpha_mix =  0.700 |ddv_scf|^2 =  1.264E-09

      iter #   7 total cpu time :  2417.9 secs   av.it.:  12.4
      thresh= 3.556E-06 alpha_mix =  0.700 |ddv_scf|^2 =  1.837E-11

      iter #   8 total cpu time :  2513.2 secs   av.it.:  13.0
      thresh= 4.286E-07 alpha_mix =  0.700 |ddv_scf|^2 =  2.302E-11

      iter #   9 total cpu time :  2600.0 secs   av.it.:  11.6
      thresh= 4.798E-07 alpha_mix =  0.700 |ddv_scf|^2 =  1.870E-11

      iter #  10 total cpu time :  2686.3 secs   av.it.:  11.5
      thresh= 4.325E-07 alpha_mix =  0.700 |ddv_scf|^2 =  5.438E-12

      iter #  11 total cpu time :  2771.5 secs   av.it.:  11.3
      thresh= 2.332E-07 alpha_mix =  0.700 |ddv_scf|^2 =  1.034E-12

      iter #  12 total cpu time :  2862.7 secs   av.it.:  12.1
      thresh= 1.017E-07 alpha_mix =  0.700 |ddv_scf|^2 =  3.108E-13

      iter #  13 total cpu time :  2949.0 secs   av.it.:  11.5
      thresh= 5.575E-08 alpha_mix =  0.700 |ddv_scf|^2 =  5.990E-15

     End of self-consistent calculation

     Convergence has been achieved 


     Representation #   3 mode #   3

     Self-consistent Calculation

      iter #   1 total cpu time :  3019.9 secs   av.it.:   6.9
      thresh= 1.000E-02 alpha_mix =  0.700 |ddv_scf|^2 =  1.621E-05

      iter #   2 total cpu time :  3115.4 secs   av.it.:  13.0
      thresh= 4.026E-04 alpha_mix =  0.700 |ddv_scf|^2 =  3.611E-04

      iter #   3 total cpu time :  3196.5 secs   av.it.:  10.5
      thresh= 1.900E-03 alpha_mix =  0.700 |ddv_scf|^2 =  8.258E-07

      iter #   4 total cpu time :  3284.8 secs   av.it.:  11.8
      thresh= 9.087E-05 alpha_mix =  0.700 |ddv_scf|^2 =  1.908E-08

      iter #   5 total cpu time :  3376.9 secs   av.it.:  12.5
      thresh= 1.381E-05 alpha_mix =  0.700 |ddv_scf|^2 =  8.218E-09

      iter #   6 total cpu time :  3465.9 secs   av.it.:  11.9
      thresh= 9.065E-06 alpha_mix =  0.700 |ddv_scf|^2 =  1.870E-10

      iter #   7 total cpu time :  3557.9 secs   av.it.:  12.5
      thresh= 1.368E-06 alpha_mix =  0.700 |ddv_scf|^2 =  3.003E-11

      iter #   8 total cpu time :  3649.3 secs   av.it.:  12.4
      thresh= 5.480E-07 alpha_mix =  0.700 |ddv_scf|^2 =  6.927E-12

      iter #   9 total cpu time :  3743.7 secs   av.it.:  12.8
      thresh= 2.632E-07 alpha_mix =  0.700 |ddv_scf|^2 =  3.352E-11

      iter #  10 total cpu time :  3828.0 secs   av.it.:  11.1
      thresh= 5.790E-07 alpha_mix =  0.700 |ddv_scf|^2 =  3.963E-12

      iter #  11 total cpu time :  3914.5 secs   av.it.:  11.5
      thresh= 1.991E-07 alpha_mix =  0.700 |ddv_scf|^2 =  1.968E-12

      iter #  12 total cpu time :  4001.4 secs   av.it.:  11.6
      thresh= 1.403E-07 alpha_mix =  0.700 |ddv_scf|^2 =  7.577E-14

      iter #  13 total cpu time :  4093.7 secs   av.it.:  12.5
      thresh= 2.753E-08 alpha_mix =  0.700 |ddv_scf|^2 =  1.357E-14

      iter #  14 total cpu time :  4184.1 secs   av.it.:  12.2
      thresh= 1.165E-08 alpha_mix =  0.700 |ddv_scf|^2 =  1.035E-15

     End of self-consistent calculation

     Convergence has been achieved 


     Representation #   4 mode #   4

     Self-consistent Calculation

      iter #   1 total cpu time :  4253.2 secs   av.it.:   6.9
      thresh= 1.000E-02 alpha_mix =  0.700 |ddv_scf|^2 =  1.741E-05

      iter #   2 total cpu time :  4348.9 secs   av.it.:  13.0
      thresh= 4.173E-04 alpha_mix =  0.700 |ddv_scf|^2 =  3.927E-04

      iter #   3 total cpu time :  4430.8 secs   av.it.:  10.5
      thresh= 1.982E-03 alpha_mix =  0.700 |ddv_scf|^2 =  7.381E-07

      iter #   4 total cpu time :  4519.1 secs   av.it.:  11.8
      thresh= 8.591E-05 alpha_mix =  0.700 |ddv_scf|^2 =  1.760E-08

      iter #   5 total cpu time :  4611.6 secs   av.it.:  12.5
      thresh= 1.327E-05 alpha_mix =  0.700 |ddv_scf|^2 =  7.801E-09

      iter #   6 total cpu time :  4700.3 secs   av.it.:  11.9
      thresh= 8.833E-06 alpha_mix =  0.700 |ddv_scf|^2 =  1.757E-10

      iter #   7 total cpu time :  4792.3 secs   av.it.:  12.4
      thresh= 1.326E-06 alpha_mix =  0.700 |ddv_scf|^2 =  2.898E-11

      iter #   8 total cpu time :  4883.3 secs   av.it.:  12.3
      thresh= 5.383E-07 alpha_mix =  0.700 |ddv_scf|^2 =  5.313E-12

      iter #   9 total cpu time :  4979.2 secs   av.it.:  13.1
      thresh= 2.305E-07 alpha_mix =  0.700 |ddv_scf|^2 =  2.317E-11

      iter #  10 total cpu time :  5064.2 secs   av.it.:  11.1
      thresh= 4.814E-07 alpha_mix =  0.700 |ddv_scf|^2 =  5.690E-12

      iter #  11 total cpu time :  5149.7 secs   av.it.:  11.3
      thresh= 2.385E-07 alpha_mix =  0.700 |ddv_scf|^2 =  2.773E-12

      iter #  12 total cpu time :  5236.1 secs   av.it.:  11.6
      thresh= 1.665E-07 alpha_mix =  0.700 |ddv_scf|^2 =  1.501E-13

      iter #  13 total cpu time :  5326.5 secs   av.it.:  12.1
      thresh= 3.874E-08 alpha_mix =  0.700 |ddv_scf|^2 =  1.484E-14

      iter #  14 total cpu time :  5416.0 secs   av.it.:  12.0
      thresh= 1.218E-08 alpha_mix =  0.700 |ddv_scf|^2 =  1.252E-15

     End of self-consistent calculation

     Convergence has been achieved 


     Representation #   5 mode #   5

     Self-consistent Calculation

      iter #   1 total cpu time :  5501.7 secs   av.it.:   9.2
      thresh= 1.000E-02 alpha_mix =  0.700 |ddv_scf|^2 =  3.033E-04

      iter #   2 total cpu time :  5597.2 secs   av.it.:  13.0
      thresh= 1.742E-03 alpha_mix =  0.700 |ddv_scf|^2 =  5.620E-03

      iter #   3 total cpu time :  5677.9 secs   av.it.:  10.6
      thresh= 7.497E-03 alpha_mix =  0.700 |ddv_scf|^2 =  5.901E-05

      iter #   4 total cpu time :  5765.1 secs   av.it.:  11.7
      thresh= 7.682E-04 alpha_mix =  0.700 |ddv_scf|^2 =  2.277E-06

      iter #   5 total cpu time :  5853.2 secs   av.it.:  11.8
      thresh= 1.509E-04 alpha_mix =  0.700 |ddv_scf|^2 =  4.342E-08

      iter #   6 total cpu time :  5942.7 secs   av.it.:  12.0
      thresh= 2.084E-05 alpha_mix =  0.700 |ddv_scf|^2 =  3.438E-09

      iter #   7 total cpu time :  6032.9 secs   av.it.:  12.1
      thresh= 5.864E-06 alpha_mix =  0.700 |ddv_scf|^2 =  1.122E-10

      iter #   8 total cpu time :  6121.9 secs   av.it.:  12.0
      thresh= 1.059E-06 alpha_mix =  0.700 |ddv_scf|^2 =  8.570E-12

      iter #   9 total cpu time :  6214.1 secs   av.it.:  12.6
      thresh= 2.927E-07 alpha_mix =  0.700 |ddv_scf|^2 =  7.690E-12

      iter #  10 total cpu time :  6303.2 secs   av.it.:  11.9
      thresh= 2.773E-07 alpha_mix =  0.700 |ddv_scf|^2 =  8.184E-12

      iter #  11 total cpu time :  6389.1 secs   av.it.:  11.4
      thresh= 2.861E-07 alpha_mix =  0.700 |ddv_scf|^2 =  2.721E-12

      iter #  12 total cpu time :  6474.8 secs   av.it.:  11.5
      thresh= 1.650E-07 alpha_mix =  0.700 |ddv_scf|^2 =  9.864E-14

      iter #  13 total cpu time :  6569.2 secs   av.it.:  12.9
      thresh= 3.141E-08 alpha_mix =  0.700 |ddv_scf|^2 =  1.733E-13

      iter #  14 total cpu time :  6654.4 secs   av.it.:  11.4
      thresh= 4.163E-08 alpha_mix =  0.700 |ddv_scf|^2 =  2.356E-15

     End of self-consistent calculation

     Convergence has been achieved 


     Representation #   6 mode #   6

     Self-consistent Calculation

      iter #   1 total cpu time :  6724.0 secs   av.it.:   7.1
      thresh= 1.000E-02 alpha_mix =  0.700 |ddv_scf|^2 =  1.577E-05

      iter #   2 total cpu time :  6819.5 secs   av.it.:  13.0
      thresh= 3.971E-04 alpha_mix =  0.700 |ddv_scf|^2 =  2.891E-04

      iter #   3 total cpu time :  6900.2 secs   av.it.:  10.6
      thresh= 1.700E-03 alpha_mix =  0.700 |ddv_scf|^2 =  3.741E-06

      iter #   4 total cpu time :  6987.8 secs   av.it.:  11.7
      thresh= 1.934E-04 alpha_mix =  0.700 |ddv_scf|^2 =  7.780E-08

      iter #   5 total cpu time :  7078.7 secs   av.it.:  12.3
      thresh= 2.789E-05 alpha_mix =  0.700 |ddv_scf|^2 =  4.846E-09

      iter #   6 total cpu time :  7169.1 secs   av.it.:  12.2
      thresh= 6.961E-06 alpha_mix =  0.700 |ddv_scf|^2 =  1.447E-10

      iter #   7 total cpu time :  7262.1 secs   av.it.:  12.7
      thresh= 1.203E-06 alpha_mix =  0.700 |ddv_scf|^2 =  1.849E-11

      iter #   8 total cpu time :  7356.8 secs   av.it.:  12.7
      thresh= 4.300E-07 alpha_mix =  0.700 |ddv_scf|^2 =  1.205E-11

      iter #   9 total cpu time :  7446.3 secs   av.it.:  12.0
      thresh= 3.472E-07 alpha_mix =  0.700 |ddv_scf|^2 =  1.595E-11

      iter #  10 total cpu time :  7534.3 secs   av.it.:  11.8
      thresh= 3.993E-07 alpha_mix =  0.700 |ddv_scf|^2 =  7.761E-12

      iter #  11 total cpu time :  7620.9 secs   av.it.:  11.6
      thresh= 2.786E-07 alpha_mix =  0.700 |ddv_scf|^2 =  4.622E-13

      iter #  12 total cpu time :  7710.9 secs   av.it.:  12.1
      thresh= 6.799E-08 alpha_mix =  0.700 |ddv_scf|^2 =  5.704E-14

      iter #  13 total cpu time :  7802.3 secs   av.it.:  12.0
      thresh= 2.388E-08 alpha_mix =  0.700 |ddv_scf|^2 =  2.110E-14

      iter #  14 total cpu time :  7890.3 secs   av.it.:  11.8
      thresh= 1.453E-08 alpha_mix =  0.700 |ddv_scf|^2 =  1.945E-14

      iter #  15 total cpu time :  7975.1 secs   av.it.:  11.2
      thresh= 1.394E-08 alpha_mix =  0.700 |ddv_scf|^2 =  9.715E-16

     End of self-consistent calculation

     Convergence has been achieved 


     Representation #   7 mode #   7

     Self-consistent Calculation

      iter #   1 total cpu time :  8039.0 secs   av.it.:   6.2
      thresh= 1.000E-02 alpha_mix =  0.700 |ddv_scf|^2 =  2.577E-07

      iter #   2 total cpu time :  8132.9 secs   av.it.:  12.7
      thresh= 5.077E-05 alpha_mix =  0.700 |ddv_scf|^2 =  1.975E-08

      iter #   3 total cpu time :  8225.6 secs   av.it.:  12.6
      thresh= 1.405E-05 alpha_mix =  0.700 |ddv_scf|^2 =  4.683E-10

      iter #   4 total cpu time :  8315.9 secs   av.it.:  12.3
      thresh= 2.164E-06 alpha_mix =  0.700 |ddv_scf|^2 =  3.091E-11

      iter #   5 total cpu time :  8406.4 secs   av.it.:  12.3
      thresh= 5.560E-07 alpha_mix =  0.700 |ddv_scf|^2 =  9.540E-14

      iter #   6 total cpu time :  8501.6 secs   av.it.:  13.0
      thresh= 3.089E-08 alpha_mix =  0.700 |ddv_scf|^2 =  5.250E-16

     End of self-consistent calculation

     Convergence has been achieved 


     Representation #   8 mode #   8

     Self-consistent Calculation

      iter #   1 total cpu time :  8565.6 secs   av.it.:   6.2
      thresh= 1.000E-02 alpha_mix =  0.700 |ddv_scf|^2 =  2.577E-07

      iter #   2 total cpu time :  8658.8 secs   av.it.:  12.7
      thresh= 5.077E-05 alpha_mix =  0.700 |ddv_scf|^2 =  1.975E-08

      iter #   3 total cpu time :  8751.5 secs   av.it.:  12.6
      thresh= 1.405E-05 alpha_mix =  0.700 |ddv_scf|^2 =  4.682E-10

      iter #   4 total cpu time :  8841.8 secs   av.it.:  12.3
      thresh= 2.164E-06 alpha_mix =  0.700 |ddv_scf|^2 =  3.091E-11

      iter #   5 total cpu time :  8932.3 secs   av.it.:  12.3
      thresh= 5.560E-07 alpha_mix =  0.700 |ddv_scf|^2 =  9.539E-14

      iter #   6 total cpu time :  9027.4 secs   av.it.:  13.0
      thresh= 3.089E-08 alpha_mix =  0.700 |ddv_scf|^2 =  5.250E-16

     End of self-consistent calculation

     Convergence has been achieved 


     Representation #   9 mode #   9

     Self-consistent Calculation

      iter #   1 total cpu time :  9106.9 secs   av.it.:   8.2
      thresh= 1.000E-02 alpha_mix =  0.700 |ddv_scf|^2 =  7.555E-06

      iter #   2 total cpu time :  9199.2 secs   av.it.:  12.5
      thresh= 2.749E-04 alpha_mix =  0.700 |ddv_scf|^2 =  9.483E-07

      iter #   3 total cpu time :  9290.5 secs   av.it.:  12.4
      thresh= 9.738E-05 alpha_mix =  0.700 |ddv_scf|^2 =  1.364E-09

      iter #   4 total cpu time :  9383.8 secs   av.it.:  12.6
      thresh= 3.693E-06 alpha_mix =  0.700 |ddv_scf|^2 =  9.543E-11

      iter #   5 total cpu time :  9474.7 secs   av.it.:  12.4
      thresh= 9.769E-07 alpha_mix =  0.700 |ddv_scf|^2 =  5.452E-13

      iter #   6 total cpu time :  9567.1 secs   av.it.:  12.5
      thresh= 7.383E-08 alpha_mix =  0.700 |ddv_scf|^2 =  1.345E-14

      iter #   7 total cpu time :  9659.8 secs   av.it.:  12.6
      thresh= 1.160E-08 alpha_mix =  0.700 |ddv_scf|^2 =  1.794E-16

     End of self-consistent calculation

     Convergence has been achieved 
 
     Number of q in the star =   12
     List of q in the star:
          1   0.000000000   0.384900179   0.311376641
          2   0.333333333  -0.192450090   0.311376641
          3   0.000000000  -0.384900179   0.311376641
          4   0.333333333   0.192450090   0.311376641
          5  -0.333333333   0.192450090   0.311376641
          6   0.000000000   0.384900179  -0.311376641
          7   0.000000000  -0.384900179  -0.311376641
          8   0.333333333  -0.192450090  -0.311376641
          9  -0.333333333  -0.192450090  -0.311376641
         10  -0.333333333   0.192450090  -0.311376641
         11   0.333333333   0.192450090  -0.311376641
         12  -0.333333333  -0.192450090   0.311376641

     Diagonalizing the dynamical matrix

     q = (    0.000000000   0.384900179   0.311376641 ) 

 **************************************************************************
     freq (    1) =       5.200676 [THz] =     173.475867 [cm-1]
     freq (    2) =       5.539207 [THz] =     184.768054 [cm-1]
     freq (    3) =       6.779644 [THz] =     226.144577 [cm-1]
     freq (    4) =      14.020742 [THz] =     467.681606 [cm-1]
     freq (    5) =      15.222500 [THz] =     507.767960 [cm-1]
     freq (    6) =      16.521610 [THz] =     551.101575 [cm-1]
     freq (    7) =      17.858432 [THz] =     595.693166 [cm-1]
     freq (    8) =      22.388213 [THz] =     746.790402 [cm-1]
     freq (    9) =      22.988098 [THz] =     766.800411 [cm-1]
 **************************************************************************

     Mode symmetry, C_s (m)     point group:

     freq (   1-   1) =        173.5  [cm-1]   --> A'                 
     freq (   2-   2) =        184.8  [cm-1]   --> A''                
     freq (   3-   3) =        226.1  [cm-1]   --> A'                 
     freq (   4-   4) =        467.7  [cm-1]   --> A''                
     freq (   5-   5) =        507.8  [cm-1]   --> A'                 
     freq (   6-   6) =        551.1  [cm-1]   --> A'                 
     freq (   7-   7) =        595.7  [cm-1]   --> A'                 
     freq (   8-   8) =        746.8  [cm-1]   --> A''                
     freq (   9-   9) =        766.8  [cm-1]   --> A'                 
 
     init_run     :      0.22s CPU      0.24s WALL (       1 calls)
     electrons    :    516.65s CPU    531.10s WALL (       1 calls)

     Called by init_run:
     wfcinit      :      0.00s CPU      0.00s WALL (       1 calls)
     potinit      :      0.03s CPU      0.03s WALL (       1 calls)
     hinit0       :      0.03s CPU      0.04s WALL (       1 calls)

     Called by electrons:
     c_bands      :    516.42s CPU    530.87s WALL (       1 calls)
     v_of_rho     :      0.05s CPU      0.05s WALL (       2 calls)

     Called by c_bands:
     init_us_2    :     53.34s CPU     55.64s WALL (  384750 calls)
     init_us_2:cp :     52.00s CPU     54.44s WALL (  384750 calls)
     cegterg      :    486.79s CPU    500.28s WALL (    9904 calls)

     Called by *egterg:
     cdiaghg      :    153.40s CPU    157.23s WALL (  152315 calls)
     h_psi        :   6700.91s CPU   6987.93s WALL ( 6489599 calls)
     g_psi        :      1.38s CPU      1.42s WALL (  146159 calls)

     Called by h_psi:
     h_psi:calbec :    401.66s CPU    418.96s WALL ( 6489599 calls)
     vloc_psi     :   5877.05s CPU   6128.64s WALL ( 6489599 calls)
     add_vuspsi   :    346.47s CPU    362.87s WALL ( 6489599 calls)

     General routines
     calbec       :    705.19s CPU    736.16s WALL (12958567 calls)
     fft          :      1.56s CPU      1.88s WALL (    1365 calls)
     ffts         :      8.23s CPU      9.41s WALL (   27991 calls)
     fftw         :   6220.95s CPU   6495.15s WALL (93756526 calls)
     interpolate  :      0.63s CPU      0.86s WALL (     208 calls)
 
     Parallel routines
 
     PHONON       :      2h34m CPU      2h41m WALL

     INITIALIZATION: 
     phq_setup    :      0.18s CPU      0.20s WALL (       1 calls)
     phq_init     :     16.53s CPU     16.68s WALL (       1 calls)
 
     phq_init     :     16.53s CPU     16.68s WALL (       1 calls)
     init_vloc    :      0.05s CPU      0.05s WALL (       2 calls)
     init_us_1    :      0.01s CPU      0.03s WALL (       2 calls)
     init_us_2    :     53.34s CPU     55.64s WALL (  384750 calls)
 
     DYNAMICAL MATRIX:
     dynmat0      :     13.91s CPU     14.02s WALL (       1 calls)
     phqscf       :   8724.26s CPU   9113.24s WALL (       1 calls)
     dynmatrix    :      0.00s CPU      0.04s WALL (       1 calls)
 
     phqscf       :   8724.26s CPU   9113.24s WALL (       1 calls)
     solve_linter :   8697.56s CPU   9086.01s WALL (       9 calls)
     drhodv       :     26.69s CPU     27.23s WALL (       9 calls)
 
     dynmat0      :     13.91s CPU     14.02s WALL (       1 calls)
     dynmat_us    :     13.91s CPU     13.98s WALL (       1 calls)
     d2ionq       :      0.01s CPU      0.01s WALL (       1 calls)
 
     dynmat_us    :     13.91s CPU     13.98s WALL (       1 calls)
 
     phqscf       :   8724.26s CPU   9113.24s WALL (       1 calls)
     solve_linter :   8697.56s CPU   9086.01s WALL (       9 calls)
 
     solve_linter :   8697.56s CPU   9086.01s WALL (       9 calls)
     dvqpsi_us    :    128.86s CPU    135.03s WALL (   27702 calls)
     sth_kernel   :   8557.19s CPU   8938.57s WALL (     103 calls)
     apply_dpot_b :    466.82s CPU    488.68s WALL (  289332 calls)
     ortho        :     49.61s CPU     51.83s WALL (  317034 calls)
     cgsolve      :   7405.87s CPU   7727.81s WALL (  317034 calls)
     incdrhoscf   :    497.51s CPU    524.90s WALL (  317034 calls)
     dv_of_drho   :      2.10s CPU      2.26s WALL (     103 calls)
     mix_pot      :      0.50s CPU      0.63s WALL (     103 calls)
     psymdvscf    :      3.59s CPU      3.68s WALL (     103 calls)
 
     dvqpsi_us    :    128.86s CPU    135.03s WALL (   27702 calls)
     dvqpsi_us_on :     36.02s CPU     37.83s WALL (   27702 calls)
 
     cgsolve      :   7405.87s CPU   7727.81s WALL (  317034 calls)
     ch_psi       :   7170.65s CPU   7480.50s WALL ( 6327380 calls)
 
     ch_psi       :   7170.65s CPU   7480.50s WALL ( 6327380 calls)
     h_psi        :   6700.91s CPU   6987.93s WALL ( 6489599 calls)
     last         :    631.41s CPU    659.13s WALL ( 6327380 calls)
 
     h_psi        :   6700.91s CPU   6987.93s WALL ( 6489599 calls)
     add_vuspsi   :    346.47s CPU    362.87s WALL ( 6489599 calls)
 
     incdrhoscf   :    497.51s CPU    524.90s WALL (  317034 calls)
 
 
      General routines
     calbec       :    705.19s CPU    736.16s WALL (12958567 calls)
     fft          :      1.56s CPU      1.88s WALL (    1365 calls)
     ffts         :      8.23s CPU      9.41s WALL (   27991 calls)
     fftw         :   6220.95s CPU   6495.15s WALL (93756526 calls)
 
 
     PHONON       :      2h34m CPU      2h41m WALL

 
   This run was terminated on:   3:38:38   3Jun2022            

=------------------------------------------------------------------------------=
   JOB DONE.
=------------------------------------------------------------------------------=
