
     Program PHONON v.7.0 starts on  1Jun2022 at  3:50:53 

     This program is part of the open-source Quantum ESPRESSO suite
     for quantum simulation of materials; please cite
         "P. Giannozzi et al., J. Phys.:Condens. Matter 21 395502 (2009);
         "P. Giannozzi et al., J. Phys.:Condens. Matter 29 465901 (2017);
         "P. Giannozzi et al., J. Chem. Phys. 152 154105 (2020);
          URL http://www.quantum-espresso.org", 
     in publications or presentations arising from this work. More details at
     http://www.quantum-espresso.org/quote

     Parallel version (MPI), running on     8 processors

     MPI processes distributed on     1 nodes
     R & G space division:  proc/nbgrp/npool/nimage =       8
     5622 MiB available memory on the printing compute node when the environment starts
 
     Reading input from mob2_fonon_03.in

     Reading xml data from directory:

     ./tmp/mob2.save/

     IMPORTANT: XC functional enforced from input :
     Exchange-correlation= PBE
                           (   1   4   3   4   0   0   0)
     Any further DFT definition will be discarded
     Please, verify this is what you really want

 
     Parallelization info
     --------------------
     sticks:   dense  smooth     PW     G-vecs:    dense   smooth      PW
     Min         216      62     18                 7773     1196     204
     Max         218      63     19                 7776     1201     209
     Sum        1735     499    151                62195     9587    1655
 
     Using Slab Decomposition
 
     Reading collected, re-writing distributed wavefunctions


     Dynamical matrices for ( 3, 3, 3)  uniform grid of q-points
     (   6 q-points):
       N         xq(1)         xq(2)         xq(3) 
       1   0.000000000   0.000000000   0.000000000
       2   0.000000000   0.000000000   0.311376641
       3   0.000000000   0.384900179   0.000000000
       4   0.000000000   0.384900179   0.311376641
       5   0.333333333   0.577350269   0.000000000
       6   0.333333333   0.577350269   0.311376641

     Calculation of q =    0.0000000   0.3849002   0.0000000

     Subspace diagonalization in iterative solution of the eigenvalue problem:
     a serial algorithm will be used

 
     Parallelization info
     --------------------
     sticks:   dense  smooth     PW     G-vecs:    dense   smooth      PW
     Min         216      62     20                 7773     1196     234
     Max         218      63     21                 7776     1201     239
     Sum        1735     499    163                62195     9587    1895
 
     Using Slab Decomposition
 

     Title: 
     Phonon calc for qp03                                                       


     bravais-lattice index     =            4
     lattice parameter (alat)  =       5.8733  a.u.
     unit-cell volume          =     187.8355 (a.u.)^3
     number of atoms/cell      =            3
     number of atomic types    =            2
     number of electrons       =        19.00
     number of Kohn-Sham states=           20
     kinetic-energy cutoff     =      52.0000  Ry
     charge density cutoff     =     728.0000  Ry
     Exchange-correlation= PBE
                           (   1   4   3   4   0   0   0)

     celldm(1)=   5.873335  celldm(2)=   0.000000  celldm(3)=   1.070515
     celldm(4)=   0.000000  celldm(5)=   0.000000  celldm(6)=   0.000000

     crystal axes: (cart. coord. in units of alat)
               a(1) = (   1.000000   0.000000   0.000000 )  
               a(2) = (  -0.500000   0.866025   0.000000 )  
               a(3) = (   0.000000   0.000000   1.070515 )  

     reciprocal axes: (cart. coord. in units 2 pi/alat)
               b(1) = (  1.000000  0.577350  0.000000 )  
               b(2) = (  0.000000  1.154701  0.000000 )  
               b(3) = (  0.000000  0.000000  0.934130 )  


     PseudoPot. # 1 for Xx read from file:
     /home/marcocarmonaga/Apps/qe-7.0/pseudo/Nb1.00Mo0.00.upf
     MD5 check sum: e4b562b21cfca1bf7e2ab47e57cae993
     Pseudo is Norm-conserving, Zval = 13.0
     Generated using virtual.x code
     Using radial grid of  602 points, 12 beta functions with: 
                l(1) =   0
                l(2) =   0
                l(3) =   1
                l(4) =   1
                l(5) =   2
                l(6) =   2
                l(7) =   0
                l(8) =   0
                l(9) =   1
               l(10) =   1
               l(11) =   2
               l(12) =   2

     PseudoPot. # 2 for B  read from file:
     /home/marcocarmonaga/Apps/qe-7.0/pseudo/B_ONCV_PBE-1.2.upf
     MD5 check sum: eb3cbeacc2d324d57d903df00f564d27
     Pseudo is Norm-conserving, Zval =  3.0
     Generated using ONCVPSP code by D. R. Hamann
     Using radial grid of  602 points,  4 beta functions with: 
                l(1) =   0
                l(2) =   0
                l(3) =   1
                l(4) =   1

     atomic species   valence    mass     pseudopotential
        Mo            13.00    92.90600     Xx( 1.00)
        B              3.00    10.81000     B ( 1.00)

     24 Sym. Ops., with inversion, found



   Cartesian axes

     site n.     atom                  positions (alat units)
         1           Mo  tau(   1) = (   0.0000000   0.0000000   0.0000000  )
         2           B   tau(   2) = (   0.5000000   0.2886751   0.5352574  )
         3           B   tau(   3) = (   0.0000000   0.5773503   0.5352574  )

     number of k points=  3078  Gaussian smearing, width (Ry)=  0.0150

     Number of k-points >= 100: set verbosity='high' to print them.

     Dense  grid:    62195 G-vectors     FFT dimensions: (  54,  54,  54)

     Smooth grid:     9587 G-vectors     FFT dimensions: (  27,  27,  30)

     Estimated max dynamical RAM per process >     158.86 MB

     Estimated total dynamical RAM >       1.24 GB

     The potential is recalculated from file :
     ./tmp/_ph0/mob2.save/charge-density

     Starting wfcs are    0 atomic +   20 random wfcs

     Band Structure Calculation
     Davidson diagonalization with overlap

     ethr =  5.26E-11,  avg # of iterations = 23.8

     total cpu time spent up to now is      287.6 secs

     End of band structure calculation

     Number of k-points >= 100: set verbosity='high' to print the bands.

     the Fermi energy is    18.4714 ev

     Phonon calc for qp03                                                       

     bravais-lattice index     =            4
     lattice parameter (alat)  =       5.8733  a.u.
     unit-cell volume          =     187.8355 (a.u.)^3
     number of atoms/cell      =            3
     number of atomic types    =            2
     kinetic-energy cut-off    =      52.0000  Ry
     charge density cut-off    =     728.0000  Ry
     convergence threshold     =      1.0E-14
     beta                      =       0.7000
     number of iterations used =            4
     Exchange-correlation= PBE
                           (   1   4   3   4   0   0   0)


     celldm(1)=    5.87334  celldm(2)=    0.00000  celldm(3)=    1.07051
     celldm(4)=    0.00000  celldm(5)=    0.00000  celldm(6)=    0.00000

     crystal axes: (cart. coord. in units of alat)
               a(1) = (  1.0000  0.0000  0.0000 )  
               a(2) = ( -0.5000  0.8660  0.0000 )  
               a(3) = (  0.0000  0.0000  1.0705 )  

     reciprocal axes: (cart. coord. in units 2 pi/alat)
               b(1) = (  1.0000  0.5774  0.0000 )  
               b(2) = (  0.0000  1.1547  0.0000 )  
               b(3) = (  0.0000  0.0000  0.9341 )  


     Atoms inside the unit cell: 

     Cartesian axes

     site n.  atom      mass           positions (alat units)
        1     Mo  92.9060   tau(    1) = (    0.00000    0.00000    0.00000  )
        2     B   10.8100   tau(    2) = (    0.50000    0.28868    0.53526  )
        3     B   10.8100   tau(    3) = (    0.00000    0.57735    0.53526  )

     Computing dynamical matrix for 
                    q = (   0.0000000   0.3849002   0.0000000 )
 
      4 Sym.Ops. (no q -> -q+G )


     G cutoff =  636.1231  (   7775 G-vectors)     FFT grid: ( 54, 54, 54)
     G cutoff =  181.7495  (   1198 G-vectors)  smooth grid: ( 27, 27, 30)

     number of k points=  3078  Gaussian smearing, width (Ry)=  0.0150

     PseudoPot. # 1 for Xx read from file:
     /home/marcocarmonaga/Apps/qe-7.0/pseudo/Nb1.00Mo0.00.upf
     MD5 check sum: e4b562b21cfca1bf7e2ab47e57cae993
     Pseudo is Norm-conserving, Zval = 13.0
     Generated using virtual.x code
     Using radial grid of  602 points, 12 beta functions with: 
                l(1) =   0
                l(2) =   0
                l(3) =   1
                l(4) =   1
                l(5) =   2
                l(6) =   2
                l(7) =   0
                l(8) =   0
                l(9) =   1
               l(10) =   1
               l(11) =   2
               l(12) =   2

     PseudoPot. # 2 for B  read from file:
     /home/marcocarmonaga/Apps/qe-7.0/pseudo/B_ONCV_PBE-1.2.upf
     MD5 check sum: eb3cbeacc2d324d57d903df00f564d27
     Pseudo is Norm-conserving, Zval =  3.0
     Generated using ONCVPSP code by D. R. Hamann
     Using radial grid of  602 points,  4 beta functions with: 
                l(1) =   0
                l(2) =   0
                l(3) =   1
                l(4) =   1

     Mode symmetry, C_2v (mm2)  point group:


     Atomic displacements:
     There are    9 irreducible representations

     Representation     1      1 modes -  To be done

     Representation     2      1 modes -  To be done

     Representation     3      1 modes -  To be done

     Representation     4      1 modes -  To be done

     Representation     5      1 modes -  To be done

     Representation     6      1 modes -  To be done

     Representation     7      1 modes -  To be done

     Representation     8      1 modes -  To be done

     Representation     9      1 modes -  To be done



     Alpha used in Ewald sum =   2.8000
     PHONON       :   4m49.30s CPU   4m56.55s WALL



     Representation #   1 mode #   1

     Self-consistent Calculation

      iter #   1 total cpu time :   330.8 secs   av.it.:   7.3
      thresh= 1.000E-02 alpha_mix =  0.700 |ddv_scf|^2 =  1.467E-04

      iter #   2 total cpu time :   376.8 secs   av.it.:  12.5
      thresh= 1.211E-03 alpha_mix =  0.700 |ddv_scf|^2 =  8.069E-03

      iter #   3 total cpu time :   413.6 secs   av.it.:   9.5
      thresh= 8.983E-03 alpha_mix =  0.700 |ddv_scf|^2 =  2.980E-06

      iter #   4 total cpu time :   458.4 secs   av.it.:  12.1
      thresh= 1.726E-04 alpha_mix =  0.700 |ddv_scf|^2 =  5.122E-07

      iter #   5 total cpu time :   501.9 secs   av.it.:  11.7
      thresh= 7.157E-05 alpha_mix =  0.700 |ddv_scf|^2 =  1.596E-08

      iter #   6 total cpu time :   546.7 secs   av.it.:  12.2
      thresh= 1.263E-05 alpha_mix =  0.700 |ddv_scf|^2 =  2.337E-10

      iter #   7 total cpu time :   593.1 secs   av.it.:  12.4
      thresh= 1.529E-06 alpha_mix =  0.700 |ddv_scf|^2 =  4.587E-09

      iter #   8 total cpu time :   631.1 secs   av.it.:   9.8
      thresh= 6.773E-06 alpha_mix =  0.700 |ddv_scf|^2 =  3.422E-11

      iter #   9 total cpu time :   675.4 secs   av.it.:  11.8
      thresh= 5.850E-07 alpha_mix =  0.700 |ddv_scf|^2 =  1.067E-10

      iter #  10 total cpu time :   714.2 secs   av.it.:  10.1
      thresh= 1.033E-06 alpha_mix =  0.700 |ddv_scf|^2 =  8.956E-13

      iter #  11 total cpu time :   761.1 secs   av.it.:  12.8
      thresh= 9.463E-08 alpha_mix =  0.700 |ddv_scf|^2 =  1.206E-12

      iter #  12 total cpu time :   804.9 secs   av.it.:  11.8
      thresh= 1.098E-07 alpha_mix =  0.700 |ddv_scf|^2 =  3.953E-13

      iter #  13 total cpu time :   847.6 secs   av.it.:  11.5
      thresh= 6.287E-08 alpha_mix =  0.700 |ddv_scf|^2 =  4.103E-15

     End of self-consistent calculation

     Convergence has been achieved 


     Representation #   2 mode #   2

     Self-consistent Calculation

      iter #   1 total cpu time :   891.2 secs   av.it.:   9.5
      thresh= 1.000E-02 alpha_mix =  0.700 |ddv_scf|^2 =  2.324E-03

      iter #   2 total cpu time :   937.1 secs   av.it.:  12.4
      thresh= 4.820E-03 alpha_mix =  0.700 |ddv_scf|^2 =  1.188E-01

      iter #   3 total cpu time :   979.4 secs   av.it.:  11.2
      thresh= 1.000E-02 alpha_mix =  0.700 |ddv_scf|^2 =  2.218E-04

      iter #   4 total cpu time :  1021.8 secs   av.it.:  11.4
      thresh= 1.489E-03 alpha_mix =  0.700 |ddv_scf|^2 =  2.130E-05

      iter #   5 total cpu time :  1063.3 secs   av.it.:  11.0
      thresh= 4.615E-04 alpha_mix =  0.700 |ddv_scf|^2 =  5.830E-07

      iter #   6 total cpu time :  1106.3 secs   av.it.:  11.5
      thresh= 7.635E-05 alpha_mix =  0.700 |ddv_scf|^2 =  1.351E-08

      iter #   7 total cpu time :  1148.5 secs   av.it.:  11.3
      thresh= 1.162E-05 alpha_mix =  0.700 |ddv_scf|^2 =  1.601E-11

      iter #   8 total cpu time :  1194.6 secs   av.it.:  12.6
      thresh= 4.001E-07 alpha_mix =  0.700 |ddv_scf|^2 =  3.713E-12

      iter #   9 total cpu time :  1242.2 secs   av.it.:  13.1
      thresh= 1.927E-07 alpha_mix =  0.700 |ddv_scf|^2 =  1.132E-11

      iter #  10 total cpu time :  1283.8 secs   av.it.:  11.0
      thresh= 3.364E-07 alpha_mix =  0.700 |ddv_scf|^2 =  2.294E-11

      iter #  11 total cpu time :  1323.8 secs   av.it.:  10.5
      thresh= 4.790E-07 alpha_mix =  0.700 |ddv_scf|^2 =  1.302E-12

      iter #  12 total cpu time :  1363.3 secs   av.it.:  10.4
      thresh= 1.141E-07 alpha_mix =  0.700 |ddv_scf|^2 =  6.940E-13

      iter #  13 total cpu time :  1404.4 secs   av.it.:  10.9
      thresh= 8.331E-08 alpha_mix =  0.700 |ddv_scf|^2 =  5.825E-14

      iter #  14 total cpu time :  1447.8 secs   av.it.:  11.7
      thresh= 2.414E-08 alpha_mix =  0.700 |ddv_scf|^2 =  2.173E-15

     End of self-consistent calculation

     Convergence has been achieved 


     Representation #   3 mode #   3

     Self-consistent Calculation

      iter #   1 total cpu time :  1483.3 secs   av.it.:   7.3
      thresh= 1.000E-02 alpha_mix =  0.700 |ddv_scf|^2 =  1.467E-04

      iter #   2 total cpu time :  1529.4 secs   av.it.:  12.5
      thresh= 1.211E-03 alpha_mix =  0.700 |ddv_scf|^2 =  8.069E-03

      iter #   3 total cpu time :  1566.1 secs   av.it.:   9.5
      thresh= 8.983E-03 alpha_mix =  0.700 |ddv_scf|^2 =  2.980E-06

      iter #   4 total cpu time :  1611.0 secs   av.it.:  12.1
      thresh= 1.726E-04 alpha_mix =  0.700 |ddv_scf|^2 =  5.122E-07

      iter #   5 total cpu time :  1654.5 secs   av.it.:  11.7
      thresh= 7.157E-05 alpha_mix =  0.700 |ddv_scf|^2 =  1.596E-08

      iter #   6 total cpu time :  1699.3 secs   av.it.:  12.1
      thresh= 1.264E-05 alpha_mix =  0.700 |ddv_scf|^2 =  2.360E-10

      iter #   7 total cpu time :  1745.1 secs   av.it.:  12.4
      thresh= 1.536E-06 alpha_mix =  0.700 |ddv_scf|^2 =  4.607E-09

      iter #   8 total cpu time :  1783.1 secs   av.it.:   9.8
      thresh= 6.788E-06 alpha_mix =  0.700 |ddv_scf|^2 =  3.411E-11

      iter #   9 total cpu time :  1827.0 secs   av.it.:  11.8
      thresh= 5.840E-07 alpha_mix =  0.700 |ddv_scf|^2 =  1.068E-10

      iter #  10 total cpu time :  1865.7 secs   av.it.:  10.1
      thresh= 1.033E-06 alpha_mix =  0.700 |ddv_scf|^2 =  8.959E-13

      iter #  11 total cpu time :  1912.7 secs   av.it.:  12.8
      thresh= 9.465E-08 alpha_mix =  0.700 |ddv_scf|^2 =  1.206E-12

      iter #  12 total cpu time :  1956.4 secs   av.it.:  11.8
      thresh= 1.098E-07 alpha_mix =  0.700 |ddv_scf|^2 =  3.948E-13

      iter #  13 total cpu time :  1999.2 secs   av.it.:  11.5
      thresh= 6.283E-08 alpha_mix =  0.700 |ddv_scf|^2 =  4.109E-15

     End of self-consistent calculation

     Convergence has been achieved 


     Representation #   4 mode #   4

     Self-consistent Calculation

      iter #   1 total cpu time :  2031.3 secs   av.it.:   6.2
      thresh= 1.000E-02 alpha_mix =  0.700 |ddv_scf|^2 =  3.157E-07

      iter #   2 total cpu time :  2077.3 secs   av.it.:  12.6
      thresh= 5.619E-05 alpha_mix =  0.700 |ddv_scf|^2 =  3.962E-08

      iter #   3 total cpu time :  2122.4 secs   av.it.:  12.3
      thresh= 1.990E-05 alpha_mix =  0.700 |ddv_scf|^2 =  5.905E-10

      iter #   4 total cpu time :  2166.5 secs   av.it.:  12.0
      thresh= 2.430E-06 alpha_mix =  0.700 |ddv_scf|^2 =  3.185E-11

      iter #   5 total cpu time :  2209.6 secs   av.it.:  11.6
      thresh= 5.644E-07 alpha_mix =  0.700 |ddv_scf|^2 =  4.361E-14

      iter #   6 total cpu time :  2257.0 secs   av.it.:  13.0
      thresh= 2.088E-08 alpha_mix =  0.700 |ddv_scf|^2 =  3.350E-16

     End of self-consistent calculation

     Convergence has been achieved 


     Representation #   5 mode #   5

     Self-consistent Calculation

      iter #   1 total cpu time :  2288.7 secs   av.it.:   6.2
      thresh= 1.000E-02 alpha_mix =  0.700 |ddv_scf|^2 =  3.157E-07

      iter #   2 total cpu time :  2334.7 secs   av.it.:  12.6
      thresh= 5.619E-05 alpha_mix =  0.700 |ddv_scf|^2 =  3.962E-08

      iter #   3 total cpu time :  2379.8 secs   av.it.:  12.3
      thresh= 1.990E-05 alpha_mix =  0.700 |ddv_scf|^2 =  5.905E-10

      iter #   4 total cpu time :  2424.0 secs   av.it.:  12.0
      thresh= 2.430E-06 alpha_mix =  0.700 |ddv_scf|^2 =  3.185E-11

      iter #   5 total cpu time :  2467.0 secs   av.it.:  11.6
      thresh= 5.644E-07 alpha_mix =  0.700 |ddv_scf|^2 =  4.361E-14

      iter #   6 total cpu time :  2514.3 secs   av.it.:  13.0
      thresh= 2.088E-08 alpha_mix =  0.700 |ddv_scf|^2 =  3.350E-16

     End of self-consistent calculation

     Convergence has been achieved 


     Representation #   6 mode #   6

     Self-consistent Calculation

      iter #   1 total cpu time :  2553.8 secs   av.it.:   8.2
      thresh= 1.000E-02 alpha_mix =  0.700 |ddv_scf|^2 =  8.889E-06

      iter #   2 total cpu time :  2599.3 secs   av.it.:  12.4
      thresh= 2.981E-04 alpha_mix =  0.700 |ddv_scf|^2 =  1.553E-06

      iter #   3 total cpu time :  2644.3 secs   av.it.:  12.2
      thresh= 1.246E-04 alpha_mix =  0.700 |ddv_scf|^2 =  1.298E-09

      iter #   4 total cpu time :  2690.3 secs   av.it.:  12.6
      thresh= 3.602E-06 alpha_mix =  0.700 |ddv_scf|^2 =  9.921E-11

      iter #   5 total cpu time :  2734.4 secs   av.it.:  12.0
      thresh= 9.960E-07 alpha_mix =  0.700 |ddv_scf|^2 =  5.623E-13

      iter #   6 total cpu time :  2780.3 secs   av.it.:  12.6
      thresh= 7.498E-08 alpha_mix =  0.700 |ddv_scf|^2 =  3.483E-15

     End of self-consistent calculation

     Convergence has been achieved 


     Representation #   7 mode #   7

     Self-consistent Calculation

      iter #   1 total cpu time :  2819.7 secs   av.it.:   8.2
      thresh= 1.000E-02 alpha_mix =  0.700 |ddv_scf|^2 =  9.608E-06

      iter #   2 total cpu time :  2865.5 secs   av.it.:  12.5
      thresh= 3.100E-04 alpha_mix =  0.700 |ddv_scf|^2 =  1.748E-06

      iter #   3 total cpu time :  2910.4 secs   av.it.:  12.3
      thresh= 1.322E-04 alpha_mix =  0.700 |ddv_scf|^2 =  1.504E-09

      iter #   4 total cpu time :  2957.1 secs   av.it.:  12.7
      thresh= 3.878E-06 alpha_mix =  0.700 |ddv_scf|^2 =  1.122E-10

      iter #   5 total cpu time :  3001.8 secs   av.it.:  12.2
      thresh= 1.059E-06 alpha_mix =  0.700 |ddv_scf|^2 =  7.870E-13

      iter #   6 total cpu time :  3046.7 secs   av.it.:  12.2
      thresh= 8.871E-08 alpha_mix =  0.700 |ddv_scf|^2 =  2.257E-14

      iter #   7 total cpu time :  3092.0 secs   av.it.:  12.4
      thresh= 1.502E-08 alpha_mix =  0.700 |ddv_scf|^2 =  2.709E-16

     End of self-consistent calculation

     Convergence has been achieved 


     Representation #   8 mode #   8

     Self-consistent Calculation

      iter #   1 total cpu time :  3123.5 secs   av.it.:   6.1
      thresh= 1.000E-02 alpha_mix =  0.700 |ddv_scf|^2 =  2.725E-07

      iter #   2 total cpu time :  3170.2 secs   av.it.:  12.8
      thresh= 5.220E-05 alpha_mix =  0.700 |ddv_scf|^2 =  3.047E-08

      iter #   3 total cpu time :  3215.9 secs   av.it.:  12.5
      thresh= 1.746E-05 alpha_mix =  0.700 |ddv_scf|^2 =  6.604E-10

      iter #   4 total cpu time :  3260.8 secs   av.it.:  12.3
      thresh= 2.570E-06 alpha_mix =  0.700 |ddv_scf|^2 =  3.860E-11

      iter #   5 total cpu time :  3305.3 secs   av.it.:  12.1
      thresh= 6.213E-07 alpha_mix =  0.700 |ddv_scf|^2 =  1.205E-13

      iter #   6 total cpu time :  3352.4 secs   av.it.:  12.9
      thresh= 3.471E-08 alpha_mix =  0.700 |ddv_scf|^2 =  5.969E-16

     End of self-consistent calculation

     Convergence has been achieved 


     Representation #   9 mode #   9

     Self-consistent Calculation

      iter #   1 total cpu time :  3383.9 secs   av.it.:   6.1
      thresh= 1.000E-02 alpha_mix =  0.700 |ddv_scf|^2 =  2.725E-07

      iter #   2 total cpu time :  3430.6 secs   av.it.:  12.8
      thresh= 5.220E-05 alpha_mix =  0.700 |ddv_scf|^2 =  3.047E-08

      iter #   3 total cpu time :  3476.4 secs   av.it.:  12.5
      thresh= 1.746E-05 alpha_mix =  0.700 |ddv_scf|^2 =  6.604E-10

      iter #   4 total cpu time :  3521.3 secs   av.it.:  12.3
      thresh= 2.570E-06 alpha_mix =  0.700 |ddv_scf|^2 =  3.860E-11

      iter #   5 total cpu time :  3565.8 secs   av.it.:  12.1
      thresh= 6.213E-07 alpha_mix =  0.700 |ddv_scf|^2 =  1.205E-13

      iter #   6 total cpu time :  3612.9 secs   av.it.:  12.9
      thresh= 3.471E-08 alpha_mix =  0.700 |ddv_scf|^2 =  5.969E-16

     End of self-consistent calculation

     Convergence has been achieved 
 
     Number of q in the star =    6
     List of q in the star:
          1   0.000000000   0.384900179   0.000000000
          2   0.333333333   0.192450090   0.000000000
          3  -0.333333333   0.192450090   0.000000000
          4  -0.333333333  -0.192450090   0.000000000
          5   0.000000000  -0.384900179   0.000000000
          6   0.333333333  -0.192450090   0.000000000

     Diagonalizing the dynamical matrix

     q = (    0.000000000   0.384900179   0.000000000 ) 

 **************************************************************************
     freq (    1) =       5.044338 [THz] =     168.260988 [cm-1]
     freq (    2) =       5.448008 [THz] =     181.726001 [cm-1]
     freq (    3) =       6.898356 [THz] =     230.104385 [cm-1]
     freq (    4) =      14.478294 [THz] =     482.943915 [cm-1]
     freq (    5) =      14.513029 [THz] =     484.102523 [cm-1]
     freq (    6) =      15.376517 [THz] =     512.905408 [cm-1]
     freq (    7) =      18.119603 [THz] =     604.404905 [cm-1]
     freq (    8) =      22.342973 [THz] =     745.281342 [cm-1]
     freq (    9) =      22.874680 [THz] =     763.017208 [cm-1]
 **************************************************************************

     Mode symmetry, C_2v (mm2)  point group:

     freq (   1-   1) =        168.3  [cm-1]   --> B_2  D_4  S_4      
     freq (   2-   2) =        181.7  [cm-1]   --> B_1  D_3  S_3      
     freq (   3-   3) =        230.1  [cm-1]   --> A_1  D_1  S_1      
     freq (   4-   4) =        482.9  [cm-1]   --> B_2  D_4  S_4      
     freq (   5-   5) =        484.1  [cm-1]   --> B_1  D_3  S_3      
     freq (   6-   6) =        512.9  [cm-1]   --> B_2  D_4  S_4      
     freq (   7-   7) =        604.4  [cm-1]   --> A_1  D_1  S_1      
     freq (   8-   8) =        745.3  [cm-1]   --> B_1  D_3  S_3      
     freq (   9-   9) =        763.0  [cm-1]   --> A_1  D_1  S_1      
 
     init_run     :      0.20s CPU      0.21s WALL (       1 calls)
     electrons    :    280.29s CPU    287.37s WALL (       1 calls)

     Called by init_run:
     wfcinit      :      0.00s CPU      0.00s WALL (       1 calls)
     potinit      :      0.02s CPU      0.02s WALL (       1 calls)
     hinit0       :      0.03s CPU      0.04s WALL (       1 calls)

     Called by electrons:
     c_bands      :    280.18s CPU    287.25s WALL (       1 calls)
     v_of_rho     :      0.04s CPU      0.04s WALL (       2 calls)

     Called by c_bands:
     init_us_2    :     21.18s CPU     22.05s WALL (  152361 calls)
     init_us_2:cp :     20.68s CPU     21.60s WALL (  152361 calls)
     cegterg      :    264.01s CPU    270.61s WALL (    4972 calls)

     Called by *egterg:
     cdiaghg      :     84.39s CPU     86.29s WALL (   76369 calls)
     h_psi        :   2474.81s CPU   2577.76s WALL ( 2364076 calls)
     g_psi        :      0.75s CPU      0.78s WALL (   73291 calls)

     Called by h_psi:
     h_psi:calbec :    152.15s CPU    158.48s WALL ( 2364076 calls)
     vloc_psi     :   2169.74s CPU   2259.92s WALL ( 2364076 calls)
     add_vuspsi   :    125.16s CPU    130.97s WALL ( 2364076 calls)

     General routines
     calbec       :    264.13s CPU    275.26s WALL ( 4717605 calls)
     fft          :      0.69s CPU      0.73s WALL (    1027 calls)
     ffts         :      1.64s CPU      1.68s WALL (   14088 calls)
     fftw         :   2302.96s CPU   2402.34s WALL (34938866 calls)
     interpolate  :      0.18s CPU      0.18s WALL (     156 calls)
 
     Parallel routines
 
     PHONON       :  57m49.66s CPU      1h 0m WALL

     INITIALIZATION: 
     phq_setup    :      0.04s CPU      0.04s WALL (       1 calls)
     phq_init     :      8.24s CPU      8.28s WALL (       1 calls)
 
     phq_init     :      8.24s CPU      8.28s WALL (       1 calls)
     init_vloc    :      0.04s CPU      0.04s WALL (       2 calls)
     init_us_1    :      0.01s CPU      0.03s WALL (       2 calls)
     init_us_2    :     21.18s CPU     22.05s WALL (  152361 calls)
 
     DYNAMICAL MATRIX:
     dynmat0      :      6.97s CPU      6.99s WALL (       1 calls)
     phqscf       :   3180.35s CPU   3317.71s WALL (       1 calls)
     dynmatrix    :      0.00s CPU      0.00s WALL (       1 calls)
 
     phqscf       :   3180.35s CPU   3317.71s WALL (       1 calls)
     solve_linter :   3168.20s CPU   3305.41s WALL (       9 calls)
     drhodv       :     12.15s CPU     12.30s WALL (       9 calls)
 
     dynmat0      :      6.97s CPU      6.99s WALL (       1 calls)
     dynmat_us    :      6.97s CPU      6.99s WALL (       1 calls)
     d2ionq       :      0.01s CPU      0.01s WALL (       1 calls)
 
     dynmat_us    :      6.97s CPU      6.99s WALL (       1 calls)
 
     phqscf       :   3180.35s CPU   3317.71s WALL (       1 calls)
     solve_linter :   3168.20s CPU   3305.41s WALL (       9 calls)
 
     solve_linter :   3168.20s CPU   3305.41s WALL (       9 calls)
     dvqpsi_us    :     60.84s CPU     62.53s WALL (   13851 calls)
     sth_kernel   :   3098.73s CPU   3234.11s WALL (      77 calls)
     apply_dpot_b :    167.48s CPU    175.41s WALL (  104652 calls)
     ortho        :     18.16s CPU     18.98s WALL (  118503 calls)
     cgsolve      :   2678.28s CPU   2792.44s WALL (  118503 calls)
     incdrhoscf   :    184.69s CPU    194.68s WALL (  118503 calls)
     dv_of_drho   :      1.35s CPU      1.38s WALL (      77 calls)
     mix_pot      :      0.33s CPU      0.33s WALL (      77 calls)
     psymdvscf    :      4.33s CPU      4.36s WALL (      77 calls)
 
     dvqpsi_us    :     60.84s CPU     62.53s WALL (   13851 calls)
     dvqpsi_us_on :     17.71s CPU     18.23s WALL (   13851 calls)
 
     cgsolve      :   2678.28s CPU   2792.44s WALL (  118503 calls)
     ch_psi       :   2596.43s CPU   2706.48s WALL ( 2282735 calls)
 
     ch_psi       :   2596.43s CPU   2706.48s WALL ( 2282735 calls)
     h_psi        :   2474.81s CPU   2577.76s WALL ( 2364076 calls)
     last         :    232.95s CPU    242.92s WALL ( 2282735 calls)
 
     h_psi        :   2474.81s CPU   2577.76s WALL ( 2364076 calls)
     add_vuspsi   :    125.16s CPU    130.97s WALL ( 2364076 calls)
 
     incdrhoscf   :    184.69s CPU    194.68s WALL (  118503 calls)
 
 
      General routines
     calbec       :    264.13s CPU    275.26s WALL ( 4717605 calls)
     fft          :      0.69s CPU      0.73s WALL (    1027 calls)
     ffts         :      1.64s CPU      1.68s WALL (   14088 calls)
     fftw         :   2302.96s CPU   2402.34s WALL (34938866 calls)
 
 
     PHONON       :  57m49.66s CPU      1h 0m WALL

 
   This run was terminated on:   4:51: 7   1Jun2022            

=------------------------------------------------------------------------------=
   JOB DONE.
=------------------------------------------------------------------------------=
