
     Program PHONON v.7.0 starts on  1Jun2022 at  3:29:57 

     This program is part of the open-source Quantum ESPRESSO suite
     for quantum simulation of materials; please cite
         "P. Giannozzi et al., J. Phys.:Condens. Matter 21 395502 (2009);
         "P. Giannozzi et al., J. Phys.:Condens. Matter 29 465901 (2017);
         "P. Giannozzi et al., J. Chem. Phys. 152 154105 (2020);
          URL http://www.quantum-espresso.org", 
     in publications or presentations arising from this work. More details at
     http://www.quantum-espresso.org/quote

     Parallel version (MPI), running on     8 processors

     MPI processes distributed on     1 nodes
     R & G space division:  proc/nbgrp/npool/nimage =       8
     5627 MiB available memory on the printing compute node when the environment starts
 
     Reading input from mob2_fonon_02.in

     Reading xml data from directory:

     ./tmp/mob2.save/

     IMPORTANT: XC functional enforced from input :
     Exchange-correlation= PBE
                           (   1   4   3   4   0   0   0)
     Any further DFT definition will be discarded
     Please, verify this is what you really want

 
     Parallelization info
     --------------------
     sticks:   dense  smooth     PW     G-vecs:    dense   smooth      PW
     Min         216      62     18                 7773     1196     204
     Max         218      63     19                 7776     1201     209
     Sum        1735     499    151                62195     9587    1655
 
     Using Slab Decomposition
 
     Reading collected, re-writing distributed wavefunctions


     Dynamical matrices for ( 3, 3, 3)  uniform grid of q-points
     (   6 q-points):
       N         xq(1)         xq(2)         xq(3) 
       1   0.000000000   0.000000000   0.000000000
       2   0.000000000   0.000000000   0.311376641
       3   0.000000000   0.384900179   0.000000000
       4   0.000000000   0.384900179   0.311376641
       5   0.333333333   0.577350269   0.000000000
       6   0.333333333   0.577350269   0.311376641

     Calculation of q =    0.0000000   0.0000000   0.3113766

     Subspace diagonalization in iterative solution of the eigenvalue problem:
     a serial algorithm will be used

 
     Parallelization info
     --------------------
     sticks:   dense  smooth     PW     G-vecs:    dense   smooth      PW
     Min         216      62     20                 7773     1196     228
     Max         218      63     21                 7776     1201     231
     Sum        1735     499    163                62195     9587    1835
 
     Using Slab Decomposition
 

     Title: 
     Phonon calc for qp02                                                       


     bravais-lattice index     =            4
     lattice parameter (alat)  =       5.8733  a.u.
     unit-cell volume          =     187.8355 (a.u.)^3
     number of atoms/cell      =            3
     number of atomic types    =            2
     number of electrons       =        19.00
     number of Kohn-Sham states=           20
     kinetic-energy cutoff     =      52.0000  Ry
     charge density cutoff     =     728.0000  Ry
     Exchange-correlation= PBE
                           (   1   4   3   4   0   0   0)

     celldm(1)=   5.873335  celldm(2)=   0.000000  celldm(3)=   1.070515
     celldm(4)=   0.000000  celldm(5)=   0.000000  celldm(6)=   0.000000

     crystal axes: (cart. coord. in units of alat)
               a(1) = (   1.000000   0.000000   0.000000 )  
               a(2) = (  -0.500000   0.866025   0.000000 )  
               a(3) = (   0.000000   0.000000   1.070515 )  

     reciprocal axes: (cart. coord. in units 2 pi/alat)
               b(1) = (  1.000000  0.577350  0.000000 )  
               b(2) = (  0.000000  1.154701  0.000000 )  
               b(3) = (  0.000000  0.000000  0.934130 )  


     PseudoPot. # 1 for Xx read from file:
     /home/marcocarmonaga/Apps/qe-7.0/pseudo/Nb1.00Mo0.00.upf
     MD5 check sum: e4b562b21cfca1bf7e2ab47e57cae993
     Pseudo is Norm-conserving, Zval = 13.0
     Generated using virtual.x code
     Using radial grid of  602 points, 12 beta functions with: 
                l(1) =   0
                l(2) =   0
                l(3) =   1
                l(4) =   1
                l(5) =   2
                l(6) =   2
                l(7) =   0
                l(8) =   0
                l(9) =   1
               l(10) =   1
               l(11) =   2
               l(12) =   2

     PseudoPot. # 2 for B  read from file:
     /home/marcocarmonaga/Apps/qe-7.0/pseudo/B_ONCV_PBE-1.2.upf
     MD5 check sum: eb3cbeacc2d324d57d903df00f564d27
     Pseudo is Norm-conserving, Zval =  3.0
     Generated using ONCVPSP code by D. R. Hamann
     Using radial grid of  602 points,  4 beta functions with: 
                l(1) =   0
                l(2) =   0
                l(3) =   1
                l(4) =   1

     atomic species   valence    mass     pseudopotential
        Mo            13.00    92.90600     Xx( 1.00)
        B              3.00    10.81000     B ( 1.00)

     24 Sym. Ops., with inversion, found



   Cartesian axes

     site n.     atom                  positions (alat units)
         1           Mo  tau(   1) = (   0.0000000   0.0000000   0.0000000  )
         2           B   tau(   2) = (   0.5000000   0.2886751   0.5352574  )
         3           B   tau(   3) = (   0.0000000   0.5773503   0.5352574  )

     number of k points=  1332  Gaussian smearing, width (Ry)=  0.0150

     Number of k-points >= 100: set verbosity='high' to print them.

     Dense  grid:    62195 G-vectors     FFT dimensions: (  54,  54,  54)

     Smooth grid:     9587 G-vectors     FFT dimensions: (  27,  27,  30)

     Estimated max dynamical RAM per process >      79.95 MB

     Estimated total dynamical RAM >     639.61 MB

     The potential is recalculated from file :
     ./tmp/_ph0/mob2.save/charge-density

     Starting wfcs are    0 atomic +   20 random wfcs

     Band Structure Calculation
     Davidson diagonalization with overlap

     ethr =  5.26E-11,  avg # of iterations = 23.5

     total cpu time spent up to now is      123.6 secs

     End of band structure calculation

     Number of k-points >= 100: set verbosity='high' to print the bands.

     the Fermi energy is    18.4714 ev

     Phonon calc for qp02                                                       

     bravais-lattice index     =            4
     lattice parameter (alat)  =       5.8733  a.u.
     unit-cell volume          =     187.8355 (a.u.)^3
     number of atoms/cell      =            3
     number of atomic types    =            2
     kinetic-energy cut-off    =      52.0000  Ry
     charge density cut-off    =     728.0000  Ry
     convergence threshold     =      1.0E-14
     beta                      =       0.7000
     number of iterations used =            4
     Exchange-correlation= PBE
                           (   1   4   3   4   0   0   0)


     celldm(1)=    5.87334  celldm(2)=    0.00000  celldm(3)=    1.07051
     celldm(4)=    0.00000  celldm(5)=    0.00000  celldm(6)=    0.00000

     crystal axes: (cart. coord. in units of alat)
               a(1) = (  1.0000  0.0000  0.0000 )  
               a(2) = ( -0.5000  0.8660  0.0000 )  
               a(3) = (  0.0000  0.0000  1.0705 )  

     reciprocal axes: (cart. coord. in units 2 pi/alat)
               b(1) = (  1.0000  0.5774  0.0000 )  
               b(2) = (  0.0000  1.1547  0.0000 )  
               b(3) = (  0.0000  0.0000  0.9341 )  


     Atoms inside the unit cell: 

     Cartesian axes

     site n.  atom      mass           positions (alat units)
        1     Mo  92.9060   tau(    1) = (    0.00000    0.00000    0.00000  )
        2     B   10.8100   tau(    2) = (    0.50000    0.28868    0.53526  )
        3     B   10.8100   tau(    3) = (    0.00000    0.57735    0.53526  )

     Computing dynamical matrix for 
                    q = (   0.0000000   0.0000000   0.3113766 )
 
     12 Sym.Ops. (no q -> -q+G )


     G cutoff =  636.1231  (   7775 G-vectors)     FFT grid: ( 54, 54, 54)
     G cutoff =  181.7495  (   1198 G-vectors)  smooth grid: ( 27, 27, 30)

     number of k points=  1332  Gaussian smearing, width (Ry)=  0.0150

     PseudoPot. # 1 for Xx read from file:
     /home/marcocarmonaga/Apps/qe-7.0/pseudo/Nb1.00Mo0.00.upf
     MD5 check sum: e4b562b21cfca1bf7e2ab47e57cae993
     Pseudo is Norm-conserving, Zval = 13.0
     Generated using virtual.x code
     Using radial grid of  602 points, 12 beta functions with: 
                l(1) =   0
                l(2) =   0
                l(3) =   1
                l(4) =   1
                l(5) =   2
                l(6) =   2
                l(7) =   0
                l(8) =   0
                l(9) =   1
               l(10) =   1
               l(11) =   2
               l(12) =   2

     PseudoPot. # 2 for B  read from file:
     /home/marcocarmonaga/Apps/qe-7.0/pseudo/B_ONCV_PBE-1.2.upf
     MD5 check sum: eb3cbeacc2d324d57d903df00f564d27
     Pseudo is Norm-conserving, Zval =  3.0
     Generated using ONCVPSP code by D. R. Hamann
     Using radial grid of  602 points,  4 beta functions with: 
                l(1) =   0
                l(2) =   0
                l(3) =   1
                l(4) =   1

     Mode symmetry, C_6v (6mm)  point group:


     Atomic displacements:
     There are    6 irreducible representations

     Representation     1      1 modes -  To be done

     Representation     2      1 modes -  To be done

     Representation     3      1 modes -  To be done

     Representation     4      2 modes -  To be done

     Representation     5      2 modes -  To be done

     Representation     6      2 modes -  To be done



     Alpha used in Ewald sum =   2.8000
     PHONON       :   2m 4.79s CPU   2m 7.88s WALL



     Representation #   1 mode #   1

     Self-consistent Calculation

      iter #   1 total cpu time :   146.0 secs   av.it.:   9.2
      thresh= 1.000E-02 alpha_mix =  0.700 |ddv_scf|^2 =  7.793E-03

      iter #   2 total cpu time :   164.8 secs   av.it.:  11.5
      thresh= 8.828E-03 alpha_mix =  0.700 |ddv_scf|^2 =  8.864E-01

      iter #   3 total cpu time :   183.3 secs   av.it.:  11.3
      thresh= 1.000E-02 alpha_mix =  0.700 |ddv_scf|^2 =  1.810E-03

      iter #   4 total cpu time :   200.6 secs   av.it.:  10.4
      thresh= 4.254E-03 alpha_mix =  0.700 |ddv_scf|^2 =  2.930E-04

      iter #   5 total cpu time :   217.4 secs   av.it.:  10.0
      thresh= 1.712E-03 alpha_mix =  0.700 |ddv_scf|^2 =  2.744E-06

      iter #   6 total cpu time :   233.9 secs   av.it.:   9.9
      thresh= 1.657E-04 alpha_mix =  0.700 |ddv_scf|^2 =  5.643E-08

      iter #   7 total cpu time :   250.0 secs   av.it.:   9.5
      thresh= 2.375E-05 alpha_mix =  0.700 |ddv_scf|^2 =  7.241E-10

      iter #   8 total cpu time :   266.4 secs   av.it.:   9.7
      thresh= 2.691E-06 alpha_mix =  0.700 |ddv_scf|^2 =  2.076E-12

      iter #   9 total cpu time :   285.5 secs   av.it.:  11.8
      thresh= 1.441E-07 alpha_mix =  0.700 |ddv_scf|^2 =  1.210E-10

      iter #  10 total cpu time :   300.6 secs   av.it.:   8.7
      thresh= 1.100E-06 alpha_mix =  0.700 |ddv_scf|^2 =  6.104E-13

      iter #  11 total cpu time :   318.5 secs   av.it.:  10.9
      thresh= 7.813E-08 alpha_mix =  0.700 |ddv_scf|^2 =  1.306E-13

      iter #  12 total cpu time :   336.2 secs   av.it.:  10.8
      thresh= 3.614E-08 alpha_mix =  0.700 |ddv_scf|^2 =  1.573E-14

      iter #  13 total cpu time :   353.0 secs   av.it.:  10.1
      thresh= 1.254E-08 alpha_mix =  0.700 |ddv_scf|^2 =  1.396E-16

     End of self-consistent calculation

     Convergence has been achieved 


     Representation #   2 mode #   2

     Self-consistent Calculation

      iter #   1 total cpu time :   368.3 secs   av.it.:   7.1
      thresh= 1.000E-02 alpha_mix =  0.700 |ddv_scf|^2 =  1.144E-03

      iter #   2 total cpu time :   387.2 secs   av.it.:  11.5
      thresh= 3.382E-03 alpha_mix =  0.700 |ddv_scf|^2 =  1.478E-01

      iter #   3 total cpu time :   404.1 secs   av.it.:  10.0
      thresh= 1.000E-02 alpha_mix =  0.700 |ddv_scf|^2 =  1.328E-05

      iter #   4 total cpu time :   423.2 secs   av.it.:  11.9
      thresh= 3.645E-04 alpha_mix =  0.700 |ddv_scf|^2 =  6.299E-05

      iter #   5 total cpu time :   440.2 secs   av.it.:  10.1
      thresh= 7.937E-04 alpha_mix =  0.700 |ddv_scf|^2 =  6.938E-07

      iter #   6 total cpu time :   456.4 secs   av.it.:   9.7
      thresh= 8.330E-05 alpha_mix =  0.700 |ddv_scf|^2 =  1.031E-08

      iter #   7 total cpu time :   472.6 secs   av.it.:   9.6
      thresh= 1.015E-05 alpha_mix =  0.700 |ddv_scf|^2 =  2.774E-12

      iter #   8 total cpu time :   491.4 secs   av.it.:  11.6
      thresh= 1.665E-07 alpha_mix =  0.700 |ddv_scf|^2 =  2.870E-12

      iter #   9 total cpu time :   508.1 secs   av.it.:   9.9
      thresh= 1.694E-07 alpha_mix =  0.700 |ddv_scf|^2 =  1.343E-11

      iter #  10 total cpu time :   523.9 secs   av.it.:   9.3
      thresh= 3.665E-07 alpha_mix =  0.700 |ddv_scf|^2 =  1.976E-13

      iter #  11 total cpu time :   541.3 secs   av.it.:  10.5
      thresh= 4.445E-08 alpha_mix =  0.700 |ddv_scf|^2 =  1.742E-14

      iter #  12 total cpu time :   558.7 secs   av.it.:  10.4
      thresh= 1.320E-08 alpha_mix =  0.700 |ddv_scf|^2 =  1.050E-16

     End of self-consistent calculation

     Convergence has been achieved 


     Representation #   3 mode #   3

     Self-consistent Calculation

      iter #   1 total cpu time :   571.1 secs   av.it.:   4.9
      thresh= 1.000E-02 alpha_mix =  0.700 |ddv_scf|^2 =  5.689E-08

      iter #   2 total cpu time :   589.7 secs   av.it.:  11.4
      thresh= 2.385E-05 alpha_mix =  0.700 |ddv_scf|^2 =  2.013E-09

      iter #   3 total cpu time :   607.3 secs   av.it.:  10.7
      thresh= 4.486E-06 alpha_mix =  0.700 |ddv_scf|^2 =  2.268E-10

      iter #   4 total cpu time :   625.3 secs   av.it.:  10.9
      thresh= 1.506E-06 alpha_mix =  0.700 |ddv_scf|^2 =  2.818E-11

      iter #   5 total cpu time :   643.3 secs   av.it.:  11.0
      thresh= 5.308E-07 alpha_mix =  0.700 |ddv_scf|^2 =  5.346E-15

     End of self-consistent calculation

     Convergence has been achieved 


     Representation #   4 modes #   4   5

     Self-consistent Calculation

      iter #   1 total cpu time :   668.5 secs   av.it.:   5.4
      thresh= 1.000E-02 alpha_mix =  0.700 |ddv_scf|^2 =  1.834E-08

      iter #   2 total cpu time :   709.8 secs   av.it.:  13.1
      thresh= 1.354E-05 alpha_mix =  0.700 |ddv_scf|^2 =  6.965E-10

      iter #   3 total cpu time :   751.0 secs   av.it.:  13.1
      thresh= 2.639E-06 alpha_mix =  0.700 |ddv_scf|^2 =  6.434E-11

      iter #   4 total cpu time :   790.3 secs   av.it.:  12.4
      thresh= 8.021E-07 alpha_mix =  0.700 |ddv_scf|^2 =  1.826E-12

      iter #   5 total cpu time :   831.2 secs   av.it.:  13.0
      thresh= 1.351E-07 alpha_mix =  0.700 |ddv_scf|^2 =  3.453E-15

     End of self-consistent calculation

     Convergence has been achieved 


     Representation #   5 modes #   6   7

     Self-consistent Calculation

      iter #   1 total cpu time :   864.4 secs   av.it.:   7.9
      thresh= 1.000E-02 alpha_mix =  0.700 |ddv_scf|^2 =  1.359E-06

      iter #   2 total cpu time :   905.5 secs   av.it.:  13.1
      thresh= 1.166E-04 alpha_mix =  0.700 |ddv_scf|^2 =  1.046E-07

      iter #   3 total cpu time :   946.4 secs   av.it.:  13.0
      thresh= 3.234E-05 alpha_mix =  0.700 |ddv_scf|^2 =  2.178E-10

      iter #   4 total cpu time :   987.1 secs   av.it.:  12.9
      thresh= 1.476E-06 alpha_mix =  0.700 |ddv_scf|^2 =  3.096E-12

      iter #   5 total cpu time :  1027.8 secs   av.it.:  12.9
      thresh= 1.759E-07 alpha_mix =  0.700 |ddv_scf|^2 =  6.932E-14

      iter #   6 total cpu time :  1069.3 secs   av.it.:  13.3
      thresh= 2.633E-08 alpha_mix =  0.700 |ddv_scf|^2 =  5.590E-16

     End of self-consistent calculation

     Convergence has been achieved 


     Representation #   6 modes #   8   9

     Self-consistent Calculation

      iter #   1 total cpu time :  1095.9 secs   av.it.:   5.8
      thresh= 1.000E-02 alpha_mix =  0.700 |ddv_scf|^2 =  5.812E-08

      iter #   2 total cpu time :  1136.4 secs   av.it.:  12.8
      thresh= 2.411E-05 alpha_mix =  0.700 |ddv_scf|^2 =  1.197E-09

      iter #   3 total cpu time :  1176.8 secs   av.it.:  12.8
      thresh= 3.460E-06 alpha_mix =  0.700 |ddv_scf|^2 =  6.258E-11

      iter #   4 total cpu time :  1213.4 secs   av.it.:  11.3
      thresh= 7.911E-07 alpha_mix =  0.700 |ddv_scf|^2 =  1.453E-13

      iter #   5 total cpu time :  1254.3 secs   av.it.:  12.9
      thresh= 3.812E-08 alpha_mix =  0.700 |ddv_scf|^2 =  4.711E-16

     End of self-consistent calculation

     Convergence has been achieved 
 
     Number of q in the star =    2
     List of q in the star:
          1   0.000000000   0.000000000   0.311376641
          2   0.000000000   0.000000000  -0.311376641

     Diagonalizing the dynamical matrix

     q = (    0.000000000   0.000000000   0.311376641 ) 

 **************************************************************************
     freq (    1) =       4.302598 [THz] =     143.519236 [cm-1]
     freq (    2) =       4.302598 [THz] =     143.519236 [cm-1]
     freq (    3) =       5.282171 [THz] =     176.194258 [cm-1]
     freq (    4) =      12.364690 [THz] =     412.441679 [cm-1]
     freq (    5) =      12.364690 [THz] =     412.441679 [cm-1]
     freq (    6) =      15.821048 [THz] =     527.733343 [cm-1]
     freq (    7) =      15.921146 [THz] =     531.072251 [cm-1]
     freq (    8) =      22.513477 [THz] =     750.968770 [cm-1]
     freq (    9) =      22.513477 [THz] =     750.968770 [cm-1]
 **************************************************************************

     Mode symmetry, C_6v (6mm)  point group:

     freq (   1-   2) =        143.5  [cm-1]   --> E_1                
     freq (   3-   3) =        176.2  [cm-1]   --> A_1                
     freq (   4-   5) =        412.4  [cm-1]   --> E_1                
     freq (   6-   6) =        527.7  [cm-1]   --> A_1                
     freq (   7-   7) =        531.1  [cm-1]   --> B_1                
     freq (   8-   9) =        751.0  [cm-1]   --> E_2                
 
     init_run     :      0.17s CPU      0.18s WALL (       1 calls)
     electrons    :    120.40s CPU    123.39s WALL (       1 calls)

     Called by init_run:
     wfcinit      :      0.00s CPU      0.00s WALL (       1 calls)
     potinit      :      0.02s CPU      0.02s WALL (       1 calls)
     hinit0       :      0.04s CPU      0.04s WALL (       1 calls)

     Called by electrons:
     c_bands      :    120.35s CPU    123.35s WALL (       1 calls)
     v_of_rho     :      0.03s CPU      0.04s WALL (       2 calls)

     Called by c_bands:
     init_us_2    :      5.68s CPU      5.91s WALL (   41292 calls)
     init_us_2:cp :      5.55s CPU      5.79s WALL (   41292 calls)
     cegterg      :    113.35s CPU    116.13s WALL (    2109 calls)

     Called by *egterg:
     cdiaghg      :     36.32s CPU     37.14s WALL (   32595 calls)
     h_psi        :    844.84s CPU    880.31s WALL (  796305 calls)
     g_psi        :      0.34s CPU      0.35s WALL (   31263 calls)

     Called by h_psi:
     h_psi:calbec :     51.03s CPU     53.17s WALL (  796305 calls)
     vloc_psi     :    741.07s CPU    772.15s WALL (  796305 calls)
     add_vuspsi   :     43.39s CPU     45.38s WALL (  796305 calls)

     General routines
     calbec       :     88.96s CPU     92.76s WALL ( 1588542 calls)
     fft          :      0.59s CPU      0.62s WALL (     832 calls)
     ffts         :      0.68s CPU      0.70s WALL (    6174 calls)
     fftw         :    789.71s CPU    824.00s WALL (12005762 calls)
     interpolate  :      0.14s CPU      0.15s WALL (     126 calls)
 
     Parallel routines
 
     PHONON       :  20m 5.16s CPU  20m55.32s WALL

     INITIALIZATION: 
     phq_setup    :      0.05s CPU      0.05s WALL (       1 calls)
     phq_init     :      3.62s CPU      3.63s WALL (       1 calls)
 
     phq_init     :      3.62s CPU      3.63s WALL (       1 calls)
     init_vloc    :      0.04s CPU      0.04s WALL (       2 calls)
     init_us_1    :      0.02s CPU      0.03s WALL (       2 calls)
     init_us_2    :      5.68s CPU      5.91s WALL (   41292 calls)
 
     DYNAMICAL MATRIX:
     dynmat0      :      3.04s CPU      3.05s WALL (       1 calls)
     phqscf       :   1080.38s CPU   1127.38s WALL (       1 calls)
     dynmatrix    :      0.00s CPU      0.00s WALL (       1 calls)
 
     phqscf       :   1080.38s CPU   1127.38s WALL (       1 calls)
     solve_linter :   1075.80s CPU   1122.74s WALL (       6 calls)
     drhodv       :      4.58s CPU      4.63s WALL (       6 calls)
 
     dynmat0      :      3.04s CPU      3.05s WALL (       1 calls)
     dynmat_us    :      3.03s CPU      3.04s WALL (       1 calls)
     d2ionq       :      0.01s CPU      0.01s WALL (       1 calls)
 
     dynmat_us    :      3.03s CPU      3.04s WALL (       1 calls)
 
     phqscf       :   1080.38s CPU   1127.38s WALL (       1 calls)
     solve_linter :   1075.80s CPU   1122.74s WALL (       6 calls)
 
     solve_linter :   1075.80s CPU   1122.74s WALL (       6 calls)
     dvqpsi_us    :     26.94s CPU     27.73s WALL (    5994 calls)
     sth_kernel   :   1039.10s CPU   1085.18s WALL (      46 calls)
     apply_dpot_b :     56.37s CPU     59.06s WALL (   35298 calls)
     ortho        :      6.32s CPU      6.60s WALL (   41292 calls)
     cgsolve      :    897.87s CPU    936.78s WALL (   41292 calls)
     incdrhoscf   :     64.61s CPU     68.12s WALL (   41292 calls)
     dv_of_drho   :      1.13s CPU      1.13s WALL (      62 calls)
     mix_pot      :      0.25s CPU      0.25s WALL (      46 calls)
     psymdvscf    :      7.47s CPU      7.49s WALL (      46 calls)
 
     dvqpsi_us    :     26.94s CPU     27.73s WALL (    5994 calls)
     dvqpsi_us_on :      8.28s CPU      8.52s WALL (    5994 calls)
 
     cgsolve      :    897.87s CPU    936.78s WALL (   41292 calls)
     ch_psi       :    870.30s CPU    907.79s WALL (  761601 calls)
 
     ch_psi       :    870.30s CPU    907.79s WALL (  761601 calls)
     h_psi        :    844.84s CPU    880.31s WALL (  796305 calls)
     last         :     76.89s CPU     80.24s WALL (  761601 calls)
 
     h_psi        :    844.84s CPU    880.31s WALL (  796305 calls)
     add_vuspsi   :     43.39s CPU     45.38s WALL (  796305 calls)
 
     incdrhoscf   :     64.61s CPU     68.12s WALL (   41292 calls)
 
 
      General routines
     calbec       :     88.96s CPU     92.76s WALL ( 1588542 calls)
     fft          :      0.59s CPU      0.62s WALL (     832 calls)
     ffts         :      0.68s CPU      0.70s WALL (    6174 calls)
     fftw         :    789.71s CPU    824.00s WALL (12005762 calls)
 
 
     PHONON       :  20m 5.16s CPU  20m55.32s WALL

 
   This run was terminated on:   3:50:52   1Jun2022            

=------------------------------------------------------------------------------=
   JOB DONE.
=------------------------------------------------------------------------------=
