
     Program PHONON v.7.0 starts on 31May2022 at  4: 3:26 

     This program is part of the open-source Quantum ESPRESSO suite
     for quantum simulation of materials; please cite
         "P. Giannozzi et al., J. Phys.:Condens. Matter 21 395502 (2009);
         "P. Giannozzi et al., J. Phys.:Condens. Matter 29 465901 (2017);
         "P. Giannozzi et al., J. Chem. Phys. 152 154105 (2020);
          URL http://www.quantum-espresso.org", 
     in publications or presentations arising from this work. More details at
     http://www.quantum-espresso.org/quote

     Parallel version (MPI), running on     8 processors

     MPI processes distributed on     1 nodes
     R & G space division:  proc/nbgrp/npool/nimage =       8
     5423 MiB available memory on the printing compute node when the environment starts
 
     Reading input from mob2_fonon_06.in

     Reading xml data from directory:

     ./tmp/mob2.save/

     IMPORTANT: XC functional enforced from input :
     Exchange-correlation= PBE
                           (   1   4   3   4   0   0   0)
     Any further DFT definition will be discarded
     Please, verify this is what you really want

 
     Parallelization info
     --------------------
     sticks:   dense  smooth     PW     G-vecs:    dense   smooth      PW
     Min         166      47     15                 5258      799     147
     Max         167      48     16                 5263      802     150
     Sum        1333     379    121                42083     6403    1179
 
     Using Slab Decomposition
 
     Reading collected, re-writing distributed wavefunctions


     Dynamical matrices for ( 3, 3, 3)  uniform grid of q-points
     (   6 q-points):
       N         xq(1)         xq(2)         xq(3) 
       1   0.000000000   0.000000000   0.000000000
       2   0.000000000   0.000000000   0.311376641
       3   0.000000000   0.384900179   0.000000000
       4   0.000000000   0.384900179   0.311376641
       5   0.333333333   0.577350269   0.000000000
       6   0.333333333   0.577350269   0.311376641

     Calculation of q =    0.3333333   0.5773503   0.3113766

     Subspace diagonalization in iterative solution of the eigenvalue problem:
     a serial algorithm will be used

 
     Parallelization info
     --------------------
     sticks:   dense  smooth     PW     G-vecs:    dense   smooth      PW
     Min         166      47     18                 5258      799     198
     Max         167      48     19                 5263      802     201
     Sum        1333     379    151                42083     6403    1593
 
     Using Slab Decomposition
 

     Title: 
     Phonon calc for qp06                                                       


     bravais-lattice index     =            4
     lattice parameter (alat)  =       5.8733  a.u.
     unit-cell volume          =     187.8355 (a.u.)^3
     number of atoms/cell      =            3
     number of atomic types    =            2
     number of electrons       =        19.00
     number of Kohn-Sham states=           20
     kinetic-energy cutoff     =      40.0000  Ry
     charge density cutoff     =     560.0000  Ry
     Exchange-correlation= PBE
                           (   1   4   3   4   0   0   0)

     celldm(1)=   5.873335  celldm(2)=   0.000000  celldm(3)=   1.070515
     celldm(4)=   0.000000  celldm(5)=   0.000000  celldm(6)=   0.000000

     crystal axes: (cart. coord. in units of alat)
               a(1) = (   1.000000   0.000000   0.000000 )  
               a(2) = (  -0.500000   0.866025   0.000000 )  
               a(3) = (   0.000000   0.000000   1.070515 )  

     reciprocal axes: (cart. coord. in units 2 pi/alat)
               b(1) = (  1.000000  0.577350  0.000000 )  
               b(2) = (  0.000000  1.154701  0.000000 )  
               b(3) = (  0.000000  0.000000  0.934130 )  


     PseudoPot. # 1 for Xx read from file:
     /home/marcocarmonaga/Apps/qe-7.0/pseudo/Nb1.00Mo0.00.upf
     MD5 check sum: e4b562b21cfca1bf7e2ab47e57cae993
     Pseudo is Norm-conserving, Zval = 13.0
     Generated using virtual.x code
     Using radial grid of  602 points, 12 beta functions with: 
                l(1) =   0
                l(2) =   0
                l(3) =   1
                l(4) =   1
                l(5) =   2
                l(6) =   2
                l(7) =   0
                l(8) =   0
                l(9) =   1
               l(10) =   1
               l(11) =   2
               l(12) =   2

     PseudoPot. # 2 for B  read from file:
     /home/marcocarmonaga/Apps/qe-7.0/pseudo/B_ONCV_PBE-1.2.upf
     MD5 check sum: eb3cbeacc2d324d57d903df00f564d27
     Pseudo is Norm-conserving, Zval =  3.0
     Generated using ONCVPSP code by D. R. Hamann
     Using radial grid of  602 points,  4 beta functions with: 
                l(1) =   0
                l(2) =   0
                l(3) =   1
                l(4) =   1

     atomic species   valence    mass     pseudopotential
        Mo            13.00    92.90600     Xx( 1.00)
        B              3.00    10.81000     B ( 1.00)

     24 Sym. Ops., with inversion, found



   Cartesian axes

     site n.     atom                  positions (alat units)
         1           Mo  tau(   1) = (   0.0000000   0.0000000   0.0000000  )
         2           B   tau(   2) = (   0.5000000   0.2886751   0.5352574  )
         3           B   tau(   3) = (   0.0000000   0.5773503   0.5352574  )

     number of k points=  2304  Gaussian smearing, width (Ry)=  0.0150

     Number of k-points >= 100: set verbosity='high' to print them.

     Dense  grid:    42083 G-vectors     FFT dimensions: (  45,  45,  48)

     Smooth grid:     6403 G-vectors     FFT dimensions: (  24,  24,  25)

     Estimated max dynamical RAM per process >      87.26 MB

     Estimated total dynamical RAM >     698.10 MB

     The potential is recalculated from file :
     ./tmp/_ph0/mob2.save/charge-density

     Starting wfcs are    0 atomic +   20 random wfcs

     Band Structure Calculation
     Davidson diagonalization with overlap

     ethr =  5.26E-11,  avg # of iterations = 21.0

     total cpu time spent up to now is      160.8 secs

     End of band structure calculation

     Number of k-points >= 100: set verbosity='high' to print the bands.

     the Fermi energy is    18.4736 ev

     Phonon calc for qp06                                                       

     bravais-lattice index     =            4
     lattice parameter (alat)  =       5.8733  a.u.
     unit-cell volume          =     187.8355 (a.u.)^3
     number of atoms/cell      =            3
     number of atomic types    =            2
     kinetic-energy cut-off    =      40.0000  Ry
     charge density cut-off    =     560.0000  Ry
     convergence threshold     =      1.0E-14
     beta                      =       0.7000
     number of iterations used =            4
     Exchange-correlation= PBE
                           (   1   4   3   4   0   0   0)


     celldm(1)=    5.87334  celldm(2)=    0.00000  celldm(3)=    1.07051
     celldm(4)=    0.00000  celldm(5)=    0.00000  celldm(6)=    0.00000

     crystal axes: (cart. coord. in units of alat)
               a(1) = (  1.0000  0.0000  0.0000 )  
               a(2) = ( -0.5000  0.8660  0.0000 )  
               a(3) = (  0.0000  0.0000  1.0705 )  

     reciprocal axes: (cart. coord. in units 2 pi/alat)
               b(1) = (  1.0000  0.5774  0.0000 )  
               b(2) = (  0.0000  1.1547  0.0000 )  
               b(3) = (  0.0000  0.0000  0.9341 )  


     Atoms inside the unit cell: 

     Cartesian axes

     site n.  atom      mass           positions (alat units)
        1     Mo  92.9060   tau(    1) = (    0.00000    0.00000    0.00000  )
        2     B   10.8100   tau(    2) = (    0.50000    0.28868    0.53526  )
        3     B   10.8100   tau(    3) = (    0.00000    0.57735    0.53526  )

     Computing dynamical matrix for 
                    q = (   0.3333333   0.5773503   0.3113766 )
 
      6 Sym.Ops. (no q -> -q+G )


     G cutoff =  489.3255  (   5263 G-vectors)     FFT grid: ( 45, 45, 48)
     G cutoff =  139.8073  (    802 G-vectors)  smooth grid: ( 24, 24, 25)

     number of k points=  2304  Gaussian smearing, width (Ry)=  0.0150

     PseudoPot. # 1 for Xx read from file:
     /home/marcocarmonaga/Apps/qe-7.0/pseudo/Nb1.00Mo0.00.upf
     MD5 check sum: e4b562b21cfca1bf7e2ab47e57cae993
     Pseudo is Norm-conserving, Zval = 13.0
     Generated using virtual.x code
     Using radial grid of  602 points, 12 beta functions with: 
                l(1) =   0
                l(2) =   0
                l(3) =   1
                l(4) =   1
                l(5) =   2
                l(6) =   2
                l(7) =   0
                l(8) =   0
                l(9) =   1
               l(10) =   1
               l(11) =   2
               l(12) =   2

     PseudoPot. # 2 for B  read from file:
     /home/marcocarmonaga/Apps/qe-7.0/pseudo/B_ONCV_PBE-1.2.upf
     MD5 check sum: eb3cbeacc2d324d57d903df00f564d27
     Pseudo is Norm-conserving, Zval =  3.0
     Generated using ONCVPSP code by D. R. Hamann
     Using radial grid of  602 points,  4 beta functions with: 
                l(1) =   0
                l(2) =   0
                l(3) =   1
                l(4) =   1

     Mode symmetry, C_3v (3m)   point group:


     Atomic displacements:
     There are    6 irreducible representations

     Representation     1      1 modes -  To be done

     Representation     2      1 modes -  To be done

     Representation     3      1 modes -  To be done

     Representation     4      2 modes -  To be done

     Representation     5      2 modes -  To be done

     Representation     6      2 modes -  To be done



     Alpha used in Ewald sum =   2.8000
     PHONON       :   2m42.43s CPU   2m46.87s WALL



     Representation #   1 mode #   1

     Self-consistent Calculation

      iter #   1 total cpu time :   188.6 secs   av.it.:   8.4
      thresh= 1.000E-02 alpha_mix =  0.700 |ddv_scf|^2 =  5.197E-05

      iter #   2 total cpu time :   213.0 secs   av.it.:  12.2
      thresh= 7.209E-04 alpha_mix =  0.700 |ddv_scf|^2 =  1.066E-04

      iter #   3 total cpu time :   236.0 secs   av.it.:  11.2
      thresh= 1.033E-03 alpha_mix =  0.700 |ddv_scf|^2 =  3.877E-05

      iter #   4 total cpu time :   258.1 secs   av.it.:  10.7
      thresh= 6.227E-04 alpha_mix =  0.700 |ddv_scf|^2 =  5.502E-08

      iter #   5 total cpu time :   281.0 secs   av.it.:  11.2
      thresh= 2.346E-05 alpha_mix =  0.700 |ddv_scf|^2 =  3.802E-10

      iter #   6 total cpu time :   304.5 secs   av.it.:  11.6
      thresh= 1.950E-06 alpha_mix =  0.700 |ddv_scf|^2 =  3.582E-12

      iter #   7 total cpu time :   327.6 secs   av.it.:  11.3
      thresh= 1.893E-07 alpha_mix =  0.700 |ddv_scf|^2 =  4.741E-14

      iter #   8 total cpu time :   351.6 secs   av.it.:  11.9
      thresh= 2.177E-08 alpha_mix =  0.700 |ddv_scf|^2 =  8.499E-16

     End of self-consistent calculation

     Convergence has been achieved 


     Representation #   2 mode #   2

     Self-consistent Calculation

      iter #   1 total cpu time :   370.5 secs   av.it.:   6.8
      thresh= 1.000E-02 alpha_mix =  0.700 |ddv_scf|^2 =  1.048E-05

      iter #   2 total cpu time :   395.2 secs   av.it.:  12.3
      thresh= 3.238E-04 alpha_mix =  0.700 |ddv_scf|^2 =  6.268E-05

      iter #   3 total cpu time :   417.3 secs   av.it.:  10.6
      thresh= 7.917E-04 alpha_mix =  0.700 |ddv_scf|^2 =  2.938E-06

      iter #   4 total cpu time :   439.9 secs   av.it.:  11.0
      thresh= 1.714E-04 alpha_mix =  0.700 |ddv_scf|^2 =  1.669E-09

      iter #   5 total cpu time :   463.5 secs   av.it.:  11.6
      thresh= 4.086E-06 alpha_mix =  0.700 |ddv_scf|^2 =  1.388E-10

      iter #   6 total cpu time :   486.4 secs   av.it.:  11.3
      thresh= 1.178E-06 alpha_mix =  0.700 |ddv_scf|^2 =  3.227E-12

      iter #   7 total cpu time :   509.3 secs   av.it.:  11.2
      thresh= 1.796E-07 alpha_mix =  0.700 |ddv_scf|^2 =  5.739E-15

     End of self-consistent calculation

     Convergence has been achieved 


     Representation #   3 mode #   3

     Self-consistent Calculation

      iter #   1 total cpu time :   524.7 secs   av.it.:   4.7
      thresh= 1.000E-02 alpha_mix =  0.700 |ddv_scf|^2 =  2.840E-08

      iter #   2 total cpu time :   546.3 secs   av.it.:  10.4
      thresh= 1.685E-05 alpha_mix =  0.700 |ddv_scf|^2 =  2.814E-09

      iter #   3 total cpu time :   566.5 secs   av.it.:   9.6
      thresh= 5.304E-06 alpha_mix =  0.700 |ddv_scf|^2 =  2.921E-12

      iter #   4 total cpu time :   590.1 secs   av.it.:  11.6
      thresh= 1.709E-07 alpha_mix =  0.700 |ddv_scf|^2 =  2.394E-15

     End of self-consistent calculation

     Convergence has been achieved 


     Representation #   4 modes #   4   5

     Self-consistent Calculation

      iter #   1 total cpu time :   626.7 secs   av.it.:   6.7
      thresh= 1.000E-02 alpha_mix =  0.700 |ddv_scf|^2 =  6.063E-07

      iter #   2 total cpu time :   680.7 secs   av.it.:  13.7
      thresh= 7.787E-05 alpha_mix =  0.700 |ddv_scf|^2 =  6.876E-07

      iter #   3 total cpu time :   731.4 secs   av.it.:  12.7
      thresh= 8.292E-05 alpha_mix =  0.700 |ddv_scf|^2 =  9.546E-09

      iter #   4 total cpu time :   783.3 secs   av.it.:  13.1
      thresh= 9.771E-06 alpha_mix =  0.700 |ddv_scf|^2 =  1.888E-10

      iter #   5 total cpu time :   834.8 secs   av.it.:  13.0
      thresh= 1.374E-06 alpha_mix =  0.700 |ddv_scf|^2 =  6.040E-12

      iter #   6 total cpu time :   885.8 secs   av.it.:  12.9
      thresh= 2.458E-07 alpha_mix =  0.700 |ddv_scf|^2 =  1.697E-14

      iter #   7 total cpu time :   939.6 secs   av.it.:  13.7
      thresh= 1.303E-08 alpha_mix =  0.700 |ddv_scf|^2 =  1.434E-16

     End of self-consistent calculation

     Convergence has been achieved 


     Representation #   5 modes #   6   7

     Self-consistent Calculation

      iter #   1 total cpu time :   977.0 secs   av.it.:   6.9
      thresh= 1.000E-02 alpha_mix =  0.700 |ddv_scf|^2 =  9.278E-07

      iter #   2 total cpu time :  1030.9 secs   av.it.:  13.7
      thresh= 9.632E-05 alpha_mix =  0.700 |ddv_scf|^2 =  1.310E-06

      iter #   3 total cpu time :  1081.2 secs   av.it.:  12.6
      thresh= 1.144E-04 alpha_mix =  0.700 |ddv_scf|^2 =  4.371E-09

      iter #   4 total cpu time :  1133.7 secs   av.it.:  13.3
      thresh= 6.611E-06 alpha_mix =  0.700 |ddv_scf|^2 =  2.017E-10

      iter #   5 total cpu time :  1185.5 secs   av.it.:  13.0
      thresh= 1.420E-06 alpha_mix =  0.700 |ddv_scf|^2 =  5.865E-12

      iter #   6 total cpu time :  1236.8 secs   av.it.:  12.9
      thresh= 2.422E-07 alpha_mix =  0.700 |ddv_scf|^2 =  1.523E-14

      iter #   7 total cpu time :  1290.8 secs   av.it.:  13.7
      thresh= 1.234E-08 alpha_mix =  0.700 |ddv_scf|^2 =  1.000E-16

     End of self-consistent calculation

     Convergence has been achieved 


     Representation #   6 modes #   8   9

     Self-consistent Calculation

      iter #   1 total cpu time :  1336.3 secs   av.it.:   8.7
      thresh= 1.000E-02 alpha_mix =  0.700 |ddv_scf|^2 =  1.838E-05

      iter #   2 total cpu time :  1389.1 secs   av.it.:  13.4
      thresh= 4.288E-04 alpha_mix =  0.700 |ddv_scf|^2 =  2.062E-05

      iter #   3 total cpu time :  1438.8 secs   av.it.:  12.4
      thresh= 4.541E-04 alpha_mix =  0.700 |ddv_scf|^2 =  2.569E-07

      iter #   4 total cpu time :  1489.4 secs   av.it.:  12.7
      thresh= 5.068E-05 alpha_mix =  0.700 |ddv_scf|^2 =  4.920E-10

      iter #   5 total cpu time :  1541.7 secs   av.it.:  13.2
      thresh= 2.218E-06 alpha_mix =  0.700 |ddv_scf|^2 =  2.067E-11

      iter #   6 total cpu time :  1592.2 secs   av.it.:  12.7
      thresh= 4.547E-07 alpha_mix =  0.700 |ddv_scf|^2 =  9.686E-14

      iter #   7 total cpu time :  1643.8 secs   av.it.:  13.0
      thresh= 3.112E-08 alpha_mix =  0.700 |ddv_scf|^2 =  4.463E-15

     End of self-consistent calculation

     Convergence has been achieved 
 
     Number of q in the star =    4
     List of q in the star:
          1   0.333333333   0.577350269   0.311376641
          2   0.333333333   0.577350269  -0.311376641
          3  -0.333333333  -0.577350269  -0.311376641
          4  -0.333333333   0.577350269   0.311376641

     Diagonalizing the dynamical matrix

     q = (    0.333333333   0.577350269   0.311376641 ) 

 **************************************************************************
     freq (    1) =       5.624229 [THz] =     187.604096 [cm-1]
     freq (    2) =       6.739756 [THz] =     224.814052 [cm-1]
     freq (    3) =       6.739756 [THz] =     224.814052 [cm-1]
     freq (    4) =      16.264210 [THz] =     542.515636 [cm-1]
     freq (    5) =      16.264210 [THz] =     542.515636 [cm-1]
     freq (    6) =      17.763484 [THz] =     592.526056 [cm-1]
     freq (    7) =      19.769911 [THz] =     659.453240 [cm-1]
     freq (    8) =      19.769911 [THz] =     659.453240 [cm-1]
     freq (    9) =      22.518620 [THz] =     751.140317 [cm-1]
 **************************************************************************

     Mode symmetry, C_3v (3m)   point group:

     freq (   1-   1) =        187.6  [cm-1]   --> A_1  L_1           
     freq (   2-   3) =        224.8  [cm-1]   --> E    L_3           
     freq (   4-   5) =        542.5  [cm-1]   --> E    L_3           
     freq (   6-   6) =        592.5  [cm-1]   --> A_2  L_2           
     freq (   7-   8) =        659.5  [cm-1]   --> E    L_3           
     freq (   9-   9) =        751.1  [cm-1]   --> A_1  L_1           
 
     init_run     :      0.11s CPU      0.11s WALL (       1 calls)
     electrons    :    156.36s CPU    160.63s WALL (       1 calls)

     Called by init_run:
     wfcinit      :      0.00s CPU      0.00s WALL (       1 calls)
     potinit      :      0.01s CPU      0.01s WALL (       1 calls)
     hinit0       :      0.02s CPU      0.03s WALL (       1 calls)

     Called by electrons:
     c_bands      :    156.28s CPU    160.55s WALL (       1 calls)
     v_of_rho     :      0.02s CPU      0.02s WALL (       2 calls)

     Called by c_bands:
     init_us_2    :      6.47s CPU      6.78s WALL (   64512 calls)
     init_us_2:cp :      6.28s CPU      6.61s WALL (   64512 calls)
     cegterg      :    147.57s CPU    151.54s WALL (    3129 calls)

     Called by *egterg:
     cdiaghg      :     58.45s CPU     59.79s WALL (   50662 calls)
     h_psi        :   1103.06s CPU   1160.57s WALL ( 1426984 calls)
     g_psi        :      0.38s CPU      0.39s WALL (   48358 calls)

     Called by h_psi:
     h_psi:calbec :     66.40s CPU     69.86s WALL ( 1426984 calls)
     vloc_psi     :    960.54s CPU   1010.62s WALL ( 1426984 calls)
     add_vuspsi   :     60.86s CPU     64.32s WALL ( 1426984 calls)

     General routines
     calbec       :    116.34s CPU    122.64s WALL ( 2853169 calls)
     fft          :      0.31s CPU      0.33s WALL (     819 calls)
     ffts         :      0.76s CPU      0.78s WALL (   10546 calls)
     fftw         :   1010.21s CPU   1064.38s WALL (21472550 calls)
     interpolate  :      0.08s CPU      0.08s WALL (     124 calls)
 
     Parallel routines
 
     PHONON       :  26m 4.76s CPU  27m25.10s WALL

     INITIALIZATION: 
     phq_setup    :      0.03s CPU      0.03s WALL (       1 calls)
     phq_init     :      5.47s CPU      5.49s WALL (       1 calls)
 
     phq_init     :      5.47s CPU      5.49s WALL (       1 calls)
     init_vloc    :      0.03s CPU      0.03s WALL (       2 calls)
     init_us_1    :      0.01s CPU      0.02s WALL (       2 calls)
     init_us_2    :      6.47s CPU      6.78s WALL (   64512 calls)
 
     DYNAMICAL MATRIX:
     dynmat0      :      4.83s CPU      4.85s WALL (       1 calls)
     phqscf       :   1402.33s CPU   1478.18s WALL (       1 calls)
     dynmatrix    :      0.00s CPU      0.00s WALL (       1 calls)
 
     phqscf       :   1402.33s CPU   1478.18s WALL (       1 calls)
     solve_linter :   1396.40s CPU   1472.13s WALL (       6 calls)
     drhodv       :      5.92s CPU      6.05s WALL (       6 calls)
 
     dynmat0      :      4.83s CPU      4.85s WALL (       1 calls)
     dynmat_us    :      4.83s CPU      4.84s WALL (       1 calls)
     d2ionq       :      0.00s CPU      0.00s WALL (       1 calls)
 
     dynmat_us    :      4.83s CPU      4.84s WALL (       1 calls)
 
     phqscf       :   1402.33s CPU   1478.18s WALL (       1 calls)
     solve_linter :   1396.40s CPU   1472.13s WALL (       6 calls)
 
     solve_linter :   1396.40s CPU   1472.13s WALL (       6 calls)
     dvqpsi_us    :     37.30s CPU     38.56s WALL (   10368 calls)
     sth_kernel   :   1355.18s CPU   1429.59s WALL (      40 calls)
     apply_dpot_b :     69.46s CPU     73.73s WALL (   59904 calls)
     ortho        :      7.33s CPU      7.76s WALL (   70272 calls)
     cgsolve      :   1185.87s CPU   1249.68s WALL (   70272 calls)
     incdrhoscf   :     77.71s CPU     82.69s WALL (   70272 calls)
     dv_of_drho   :      0.58s CPU      0.59s WALL (      61 calls)
     mix_pot      :      0.14s CPU      0.14s WALL (      40 calls)
     psymdvscf    :      2.26s CPU      2.27s WALL (      40 calls)
 
     dvqpsi_us    :     37.30s CPU     38.56s WALL (   10368 calls)
     dvqpsi_us_on :     13.89s CPU     14.35s WALL (   10368 calls)
 
     cgsolve      :   1185.87s CPU   1249.68s WALL (   70272 calls)
     ch_psi       :   1150.60s CPU   1212.20s WALL ( 1373193 calls)
 
     ch_psi       :   1150.60s CPU   1212.20s WALL ( 1373193 calls)
     h_psi        :   1103.06s CPU   1160.57s WALL ( 1426984 calls)
     last         :    102.28s CPU    107.83s WALL ( 1373193 calls)
 
     h_psi        :   1103.06s CPU   1160.57s WALL ( 1426984 calls)
     add_vuspsi   :     60.86s CPU     64.32s WALL ( 1426984 calls)
 
     incdrhoscf   :     77.71s CPU     82.69s WALL (   70272 calls)
 
 
      General routines
     calbec       :    116.34s CPU    122.64s WALL ( 2853169 calls)
     fft          :      0.31s CPU      0.33s WALL (     819 calls)
     ffts         :      0.76s CPU      0.78s WALL (   10546 calls)
     fftw         :   1010.21s CPU   1064.38s WALL (21472550 calls)
 
 
     PHONON       :  26m 4.76s CPU  27m25.10s WALL

 
   This run was terminated on:   4:30:51  31May2022            

=------------------------------------------------------------------------------=
   JOB DONE.
=------------------------------------------------------------------------------=
