
     Program PHONON v.7.0 starts on 31May2022 at  3:51: 9 

     This program is part of the open-source Quantum ESPRESSO suite
     for quantum simulation of materials; please cite
         "P. Giannozzi et al., J. Phys.:Condens. Matter 21 395502 (2009);
         "P. Giannozzi et al., J. Phys.:Condens. Matter 29 465901 (2017);
         "P. Giannozzi et al., J. Chem. Phys. 152 154105 (2020);
          URL http://www.quantum-espresso.org", 
     in publications or presentations arising from this work. More details at
     http://www.quantum-espresso.org/quote

     Parallel version (MPI), running on     8 processors

     MPI processes distributed on     1 nodes
     R & G space division:  proc/nbgrp/npool/nimage =       8
     5421 MiB available memory on the printing compute node when the environment starts
 
     Reading input from mob2_fonon_05.in

     Reading xml data from directory:

     ./tmp/mob2.save/

     IMPORTANT: XC functional enforced from input :
     Exchange-correlation= PBE
                           (   1   4   3   4   0   0   0)
     Any further DFT definition will be discarded
     Please, verify this is what you really want

 
     Parallelization info
     --------------------
     sticks:   dense  smooth     PW     G-vecs:    dense   smooth      PW
     Min         166      47     15                 5258      799     147
     Max         167      48     16                 5263      802     150
     Sum        1333     379    121                42083     6403    1179
 
     Using Slab Decomposition
 
     Reading collected, re-writing distributed wavefunctions


     Dynamical matrices for ( 3, 3, 3)  uniform grid of q-points
     (   6 q-points):
       N         xq(1)         xq(2)         xq(3) 
       1   0.000000000   0.000000000   0.000000000
       2   0.000000000   0.000000000   0.311376641
       3   0.000000000   0.384900179   0.000000000
       4   0.000000000   0.384900179   0.311376641
       5   0.333333333   0.577350269   0.000000000
       6   0.333333333   0.577350269   0.311376641

     Calculation of q =    0.3333333   0.5773503   0.0000000

     Subspace diagonalization in iterative solution of the eigenvalue problem:
     a serial algorithm will be used

 
     Parallelization info
     --------------------
     sticks:   dense  smooth     PW     G-vecs:    dense   smooth      PW
     Min         166      47     18                 5258      799     192
     Max         167      48     19                 5263      802     195
     Sum        1333     379    151                42083     6403    1545
 
     Using Slab Decomposition
 

     Title: 
     Phonon calc for qp05                                                       


     bravais-lattice index     =            4
     lattice parameter (alat)  =       5.8733  a.u.
     unit-cell volume          =     187.8355 (a.u.)^3
     number of atoms/cell      =            3
     number of atomic types    =            2
     number of electrons       =        19.00
     number of Kohn-Sham states=           20
     kinetic-energy cutoff     =      40.0000  Ry
     charge density cutoff     =     560.0000  Ry
     Exchange-correlation= PBE
                           (   1   4   3   4   0   0   0)

     celldm(1)=   5.873335  celldm(2)=   0.000000  celldm(3)=   1.070515
     celldm(4)=   0.000000  celldm(5)=   0.000000  celldm(6)=   0.000000

     crystal axes: (cart. coord. in units of alat)
               a(1) = (   1.000000   0.000000   0.000000 )  
               a(2) = (  -0.500000   0.866025   0.000000 )  
               a(3) = (   0.000000   0.000000   1.070515 )  

     reciprocal axes: (cart. coord. in units 2 pi/alat)
               b(1) = (  1.000000  0.577350  0.000000 )  
               b(2) = (  0.000000  1.154701  0.000000 )  
               b(3) = (  0.000000  0.000000  0.934130 )  


     PseudoPot. # 1 for Xx read from file:
     /home/marcocarmonaga/Apps/qe-7.0/pseudo/Nb1.00Mo0.00.upf
     MD5 check sum: e4b562b21cfca1bf7e2ab47e57cae993
     Pseudo is Norm-conserving, Zval = 13.0
     Generated using virtual.x code
     Using radial grid of  602 points, 12 beta functions with: 
                l(1) =   0
                l(2) =   0
                l(3) =   1
                l(4) =   1
                l(5) =   2
                l(6) =   2
                l(7) =   0
                l(8) =   0
                l(9) =   1
               l(10) =   1
               l(11) =   2
               l(12) =   2

     PseudoPot. # 2 for B  read from file:
     /home/marcocarmonaga/Apps/qe-7.0/pseudo/B_ONCV_PBE-1.2.upf
     MD5 check sum: eb3cbeacc2d324d57d903df00f564d27
     Pseudo is Norm-conserving, Zval =  3.0
     Generated using ONCVPSP code by D. R. Hamann
     Using radial grid of  602 points,  4 beta functions with: 
                l(1) =   0
                l(2) =   0
                l(3) =   1
                l(4) =   1

     atomic species   valence    mass     pseudopotential
        Mo            13.00    92.90600     Xx( 1.00)
        B              3.00    10.81000     B ( 1.00)

     24 Sym. Ops., with inversion, found



   Cartesian axes

     site n.     atom                  positions (alat units)
         1           Mo  tau(   1) = (   0.0000000   0.0000000   0.0000000  )
         2           B   tau(   2) = (   0.5000000   0.2886751   0.5352574  )
         3           B   tau(   3) = (   0.0000000   0.5773503   0.5352574  )

     number of k points=  1152  Gaussian smearing, width (Ry)=  0.0150

     Number of k-points >= 100: set verbosity='high' to print them.

     Dense  grid:    42083 G-vectors     FFT dimensions: (  45,  45,  48)

     Smooth grid:     6403 G-vectors     FFT dimensions: (  24,  24,  25)

     Estimated max dynamical RAM per process >      52.06 MB

     Estimated total dynamical RAM >     416.47 MB

     The potential is recalculated from file :
     ./tmp/_ph0/mob2.save/charge-density

     Starting wfcs are    0 atomic +   20 random wfcs

     Band Structure Calculation
     Davidson diagonalization with overlap

     ethr =  5.26E-11,  avg # of iterations = 21.0

     total cpu time spent up to now is       80.3 secs

     End of band structure calculation

     Number of k-points >= 100: set verbosity='high' to print the bands.

     the Fermi energy is    18.4736 ev

     Phonon calc for qp05                                                       

     bravais-lattice index     =            4
     lattice parameter (alat)  =       5.8733  a.u.
     unit-cell volume          =     187.8355 (a.u.)^3
     number of atoms/cell      =            3
     number of atomic types    =            2
     kinetic-energy cut-off    =      40.0000  Ry
     charge density cut-off    =     560.0000  Ry
     convergence threshold     =      1.0E-14
     beta                      =       0.7000
     number of iterations used =            4
     Exchange-correlation= PBE
                           (   1   4   3   4   0   0   0)


     celldm(1)=    5.87334  celldm(2)=    0.00000  celldm(3)=    1.07051
     celldm(4)=    0.00000  celldm(5)=    0.00000  celldm(6)=    0.00000

     crystal axes: (cart. coord. in units of alat)
               a(1) = (  1.0000  0.0000  0.0000 )  
               a(2) = ( -0.5000  0.8660  0.0000 )  
               a(3) = (  0.0000  0.0000  1.0705 )  

     reciprocal axes: (cart. coord. in units 2 pi/alat)
               b(1) = (  1.0000  0.5774  0.0000 )  
               b(2) = (  0.0000  1.1547  0.0000 )  
               b(3) = (  0.0000  0.0000  0.9341 )  


     Atoms inside the unit cell: 

     Cartesian axes

     site n.  atom      mass           positions (alat units)
        1     Mo  92.9060   tau(    1) = (    0.00000    0.00000    0.00000  )
        2     B   10.8100   tau(    2) = (    0.50000    0.28868    0.53526  )
        3     B   10.8100   tau(    3) = (    0.00000    0.57735    0.53526  )

     Computing dynamical matrix for 
                    q = (   0.3333333   0.5773503   0.0000000 )
 
     12 Sym.Ops. (no q -> -q+G )


     G cutoff =  489.3255  (   5263 G-vectors)     FFT grid: ( 45, 45, 48)
     G cutoff =  139.8073  (    802 G-vectors)  smooth grid: ( 24, 24, 25)

     number of k points=  1152  Gaussian smearing, width (Ry)=  0.0150

     PseudoPot. # 1 for Xx read from file:
     /home/marcocarmonaga/Apps/qe-7.0/pseudo/Nb1.00Mo0.00.upf
     MD5 check sum: e4b562b21cfca1bf7e2ab47e57cae993
     Pseudo is Norm-conserving, Zval = 13.0
     Generated using virtual.x code
     Using radial grid of  602 points, 12 beta functions with: 
                l(1) =   0
                l(2) =   0
                l(3) =   1
                l(4) =   1
                l(5) =   2
                l(6) =   2
                l(7) =   0
                l(8) =   0
                l(9) =   1
               l(10) =   1
               l(11) =   2
               l(12) =   2

     PseudoPot. # 2 for B  read from file:
     /home/marcocarmonaga/Apps/qe-7.0/pseudo/B_ONCV_PBE-1.2.upf
     MD5 check sum: eb3cbeacc2d324d57d903df00f564d27
     Pseudo is Norm-conserving, Zval =  3.0
     Generated using ONCVPSP code by D. R. Hamann
     Using radial grid of  602 points,  4 beta functions with: 
                l(1) =   0
                l(2) =   0
                l(3) =   1
                l(4) =   1

     Mode symmetry, D_3h (-62m) point group:


     Atomic displacements:
     There are    6 irreducible representations

     Representation     1      1 modes -  To be done

     Representation     2      1 modes -  To be done

     Representation     3      2 modes -  To be done

     Representation     4      2 modes -  To be done

     Representation     5      1 modes -  To be done

     Representation     6      2 modes -  To be done



     Alpha used in Ewald sum =   2.8000
     PHONON       :   1m21.65s CPU   1m23.67s WALL



     Representation #   1 mode #   1

     Self-consistent Calculation

      iter #   1 total cpu time :    92.8 secs   av.it.:   6.7
      thresh= 1.000E-02 alpha_mix =  0.700 |ddv_scf|^2 =  3.544E-05

      iter #   2 total cpu time :   105.1 secs   av.it.:  12.1
      thresh= 5.953E-04 alpha_mix =  0.700 |ddv_scf|^2 =  4.870E-04

      iter #   3 total cpu time :   115.9 secs   av.it.:  10.2
      thresh= 2.207E-03 alpha_mix =  0.700 |ddv_scf|^2 =  1.980E-06

      iter #   4 total cpu time :   127.0 secs   av.it.:  10.7
      thresh= 1.407E-04 alpha_mix =  0.700 |ddv_scf|^2 =  4.827E-09

      iter #   5 total cpu time :   138.3 secs   av.it.:  10.9
      thresh= 6.948E-06 alpha_mix =  0.700 |ddv_scf|^2 =  3.763E-11

      iter #   6 total cpu time :   148.7 secs   av.it.:   9.9
      thresh= 6.134E-07 alpha_mix =  0.700 |ddv_scf|^2 =  3.000E-13

      iter #   7 total cpu time :   159.8 secs   av.it.:  10.7
      thresh= 5.477E-08 alpha_mix =  0.700 |ddv_scf|^2 =  2.877E-16

     End of self-consistent calculation

     Convergence has been achieved 


     Representation #   2 mode #   2

     Self-consistent Calculation

      iter #   1 total cpu time :   167.6 secs   av.it.:   4.7
      thresh= 1.000E-02 alpha_mix =  0.700 |ddv_scf|^2 =  2.863E-08

      iter #   2 total cpu time :   178.5 secs   av.it.:  10.4
      thresh= 1.692E-05 alpha_mix =  0.700 |ddv_scf|^2 =  2.819E-09

      iter #   3 total cpu time :   188.7 secs   av.it.:   9.5
      thresh= 5.309E-06 alpha_mix =  0.700 |ddv_scf|^2 =  3.362E-12

      iter #   4 total cpu time :   200.4 secs   av.it.:  11.5
      thresh= 1.834E-07 alpha_mix =  0.700 |ddv_scf|^2 =  2.686E-15

     End of self-consistent calculation

     Convergence has been achieved 


     Representation #   3 modes #   3   4

     Self-consistent Calculation

      iter #   1 total cpu time :   218.8 secs   av.it.:   6.7
      thresh= 1.000E-02 alpha_mix =  0.700 |ddv_scf|^2 =  2.093E-06

      iter #   2 total cpu time :   245.2 secs   av.it.:  13.3
      thresh= 1.447E-04 alpha_mix =  0.700 |ddv_scf|^2 =  5.172E-06

      iter #   3 total cpu time :   269.4 secs   av.it.:  12.0
      thresh= 2.274E-04 alpha_mix =  0.700 |ddv_scf|^2 =  7.979E-10

      iter #   4 total cpu time :   295.0 secs   av.it.:  12.8
      thresh= 2.825E-06 alpha_mix =  0.700 |ddv_scf|^2 =  5.836E-11

      iter #   5 total cpu time :   320.8 secs   av.it.:  13.0
      thresh= 7.640E-07 alpha_mix =  0.700 |ddv_scf|^2 =  4.148E-12

      iter #   6 total cpu time :   346.3 secs   av.it.:  12.9
      thresh= 2.037E-07 alpha_mix =  0.700 |ddv_scf|^2 =  1.976E-14

      iter #   7 total cpu time :   371.8 secs   av.it.:  12.8
      thresh= 1.406E-08 alpha_mix =  0.700 |ddv_scf|^2 =  8.743E-17

     End of self-consistent calculation

     Convergence has been achieved 


     Representation #   4 modes #   5   6

     Self-consistent Calculation

      iter #   1 total cpu time :   394.7 secs   av.it.:   8.8
      thresh= 1.000E-02 alpha_mix =  0.700 |ddv_scf|^2 =  3.773E-05

      iter #   2 total cpu time :   420.9 secs   av.it.:  13.2
      thresh= 6.143E-04 alpha_mix =  0.700 |ddv_scf|^2 =  8.605E-05

      iter #   3 total cpu time :   444.9 secs   av.it.:  11.9
      thresh= 9.276E-04 alpha_mix =  0.700 |ddv_scf|^2 =  1.123E-07

      iter #   4 total cpu time :   470.6 secs   av.it.:  12.9
      thresh= 3.350E-05 alpha_mix =  0.700 |ddv_scf|^2 =  2.855E-10

      iter #   5 total cpu time :   496.0 secs   av.it.:  12.7
      thresh= 1.690E-06 alpha_mix =  0.700 |ddv_scf|^2 =  8.149E-12

      iter #   6 total cpu time :   521.2 secs   av.it.:  12.6
      thresh= 2.855E-07 alpha_mix =  0.700 |ddv_scf|^2 =  3.102E-14

      iter #   7 total cpu time :   547.0 secs   av.it.:  13.0
      thresh= 1.761E-08 alpha_mix =  0.700 |ddv_scf|^2 =  2.260E-15

     End of self-consistent calculation

     Convergence has been achieved 


     Representation #   5 mode #   7

     Self-consistent Calculation

      iter #   1 total cpu time :   558.1 secs   av.it.:   7.9
      thresh= 1.000E-02 alpha_mix =  0.700 |ddv_scf|^2 =  1.289E-05

      iter #   2 total cpu time :   570.1 secs   av.it.:  11.8
      thresh= 3.591E-04 alpha_mix =  0.700 |ddv_scf|^2 =  1.415E-06

      iter #   3 total cpu time :   581.9 secs   av.it.:  11.6
      thresh= 1.189E-04 alpha_mix =  0.700 |ddv_scf|^2 =  1.326E-09

      iter #   4 total cpu time :   593.7 secs   av.it.:  11.6
      thresh= 3.641E-06 alpha_mix =  0.700 |ddv_scf|^2 =  5.427E-12

      iter #   5 total cpu time :   605.6 secs   av.it.:  11.6
      thresh= 2.329E-07 alpha_mix =  0.700 |ddv_scf|^2 =  1.147E-13

      iter #   6 total cpu time :   618.0 secs   av.it.:  11.8
      thresh= 3.386E-08 alpha_mix =  0.700 |ddv_scf|^2 =  1.212E-15

     End of self-consistent calculation

     Convergence has been achieved 


     Representation #   6 modes #   8   9

     Self-consistent Calculation

      iter #   1 total cpu time :   634.8 secs   av.it.:   5.9
      thresh= 1.000E-02 alpha_mix =  0.700 |ddv_scf|^2 =  8.072E-08

      iter #   2 total cpu time :   661.0 secs   av.it.:  13.1
      thresh= 2.841E-05 alpha_mix =  0.700 |ddv_scf|^2 =  2.740E-09

      iter #   3 total cpu time :   687.1 secs   av.it.:  13.1
      thresh= 5.235E-06 alpha_mix =  0.700 |ddv_scf|^2 =  1.199E-10

      iter #   4 total cpu time :   709.9 secs   av.it.:  11.2
      thresh= 1.095E-06 alpha_mix =  0.700 |ddv_scf|^2 =  1.834E-13

      iter #   5 total cpu time :   735.6 secs   av.it.:  12.8
      thresh= 4.282E-08 alpha_mix =  0.700 |ddv_scf|^2 =  4.248E-16

     End of self-consistent calculation

     Convergence has been achieved 
 
     Number of q in the star =    2
     List of q in the star:
          1   0.333333333   0.577350269   0.000000000
          2  -0.333333333  -0.577350269   0.000000000

     Diagonalizing the dynamical matrix

     q = (    0.333333333   0.577350269   0.000000000 ) 

 **************************************************************************
     freq (    1) =       5.774141 [THz] =     192.604623 [cm-1]
     freq (    2) =       6.722489 [THz] =     224.238080 [cm-1]
     freq (    3) =       6.722489 [THz] =     224.238080 [cm-1]
     freq (    4) =      14.162503 [THz] =     472.410239 [cm-1]
     freq (    5) =      14.162503 [THz] =     472.410239 [cm-1]
     freq (    6) =      17.144705 [THz] =     571.885805 [cm-1]
     freq (    7) =      20.477439 [THz] =     683.053832 [cm-1]
     freq (    8) =      20.477439 [THz] =     683.053832 [cm-1]
     freq (    9) =      23.781297 [THz] =     793.258692 [cm-1]
 **************************************************************************

     Mode symmetry, D_3h (-62m) point group:

     freq (   1-   1) =        192.6  [cm-1]   --> A''2               
     freq (   2-   3) =        224.2  [cm-1]   --> E'                 
     freq (   4-   5) =        472.4  [cm-1]   --> E''                
     freq (   6-   6) =        571.9  [cm-1]   --> A'_2               
     freq (   7-   8) =        683.1  [cm-1]   --> E'                 
     freq (   9-   9) =        793.3  [cm-1]   --> A'_1               
 
     init_run     :      0.09s CPU      0.10s WALL (       1 calls)
     electrons    :     78.30s CPU     80.19s WALL (       1 calls)

     Called by init_run:
     wfcinit      :      0.00s CPU      0.00s WALL (       1 calls)
     potinit      :      0.01s CPU      0.01s WALL (       1 calls)
     hinit0       :      0.02s CPU      0.03s WALL (       1 calls)

     Called by electrons:
     c_bands      :     78.25s CPU     80.15s WALL (       1 calls)
     v_of_rho     :      0.02s CPU      0.02s WALL (       2 calls)

     Called by c_bands:
     init_us_2    :      2.90s CPU      3.03s WALL (   29952 calls)
     init_us_2:cp :      2.80s CPU      2.94s WALL (   29952 calls)
     cegterg      :     73.99s CPU     75.78s WALL (    1577 calls)

     Called by *egterg:
     cdiaghg      :     29.29s CPU     29.92s WALL (   25388 calls)
     h_psi        :    485.29s CPU    510.49s WALL (  631064 calls)
     g_psi        :      0.18s CPU      0.19s WALL (   24236 calls)

     Called by h_psi:
     h_psi:calbec :     28.86s CPU     30.35s WALL (  631064 calls)
     vloc_psi     :    424.17s CPU    446.19s WALL (  631064 calls)
     add_vuspsi   :     25.47s CPU     26.97s WALL (  631064 calls)

     General routines
     calbec       :     50.58s CPU     53.25s WALL ( 1261659 calls)
     fft          :      0.29s CPU      0.32s WALL (     741 calls)
     ffts         :      0.43s CPU      0.45s WALL (    5350 calls)
     fftw         :    448.22s CPU    472.14s WALL ( 9510478 calls)
     interpolate  :      0.07s CPU      0.07s WALL (     112 calls)
 
     Parallel routines
 
     PHONON       :  11m40.69s CPU  12m16.26s WALL

     INITIALIZATION: 
     phq_setup    :      0.02s CPU      0.03s WALL (       1 calls)
     phq_init     :      2.76s CPU      2.77s WALL (       1 calls)
 
     phq_init     :      2.76s CPU      2.77s WALL (       1 calls)
     init_vloc    :      0.02s CPU      0.03s WALL (       2 calls)
     init_us_1    :      0.01s CPU      0.03s WALL (       2 calls)
     init_us_2    :      2.90s CPU      3.03s WALL (   29952 calls)
 
     DYNAMICAL MATRIX:
     dynmat0      :      2.42s CPU      2.43s WALL (       1 calls)
     phqscf       :    619.03s CPU    652.55s WALL (       1 calls)
     dynmatrix    :      0.00s CPU      0.00s WALL (       1 calls)
 
     phqscf       :    619.03s CPU    652.55s WALL (       1 calls)
     solve_linter :    616.13s CPU    649.58s WALL (       6 calls)
     drhodv       :      2.91s CPU      2.96s WALL (       6 calls)
 
     dynmat0      :      2.42s CPU      2.43s WALL (       1 calls)
     dynmat_us    :      2.42s CPU      2.42s WALL (       1 calls)
     d2ionq       :      0.00s CPU      0.00s WALL (       1 calls)
 
     dynmat_us    :      2.42s CPU      2.42s WALL (       1 calls)
 
     phqscf       :    619.03s CPU    652.55s WALL (       1 calls)
     solve_linter :    616.13s CPU    649.58s WALL (       6 calls)
 
     solve_linter :    616.13s CPU    649.58s WALL (       6 calls)
     dvqpsi_us    :     18.46s CPU     19.06s WALL (    5184 calls)
     sth_kernel   :    592.81s CPU    625.64s WALL (      36 calls)
     apply_dpot_b :     30.88s CPU     32.81s WALL (   26496 calls)
     ortho        :      3.35s CPU      3.55s WALL (   31680 calls)
     cgsolve      :    516.87s CPU    544.88s WALL (   31680 calls)
     incdrhoscf   :     35.22s CPU     37.52s WALL (   31680 calls)
     dv_of_drho   :      0.54s CPU      0.54s WALL (      55 calls)
     mix_pot      :      0.12s CPU      0.12s WALL (      36 calls)
     psymdvscf    :      3.70s CPU      3.71s WALL (      36 calls)
 
     dvqpsi_us    :     18.46s CPU     19.06s WALL (    5184 calls)
     dvqpsi_us_on :      6.71s CPU      6.92s WALL (    5184 calls)
 
     cgsolve      :    516.87s CPU    544.88s WALL (   31680 calls)
     ch_psi       :    501.35s CPU    528.34s WALL (  604099 calls)
 
     ch_psi       :    501.35s CPU    528.34s WALL (  604099 calls)
     h_psi        :    485.29s CPU    510.49s WALL (  631064 calls)
     last         :     44.89s CPU     47.33s WALL (  604099 calls)
 
     h_psi        :    485.29s CPU    510.49s WALL (  631064 calls)
     add_vuspsi   :     25.47s CPU     26.97s WALL (  631064 calls)
 
     incdrhoscf   :     35.22s CPU     37.52s WALL (   31680 calls)
 
 
      General routines
     calbec       :     50.58s CPU     53.25s WALL ( 1261659 calls)
     fft          :      0.29s CPU      0.32s WALL (     741 calls)
     ffts         :      0.43s CPU      0.45s WALL (    5350 calls)
     fftw         :    448.22s CPU    472.14s WALL ( 9510478 calls)
 
 
     PHONON       :  11m40.69s CPU  12m16.26s WALL

 
   This run was terminated on:   4: 3:25  31May2022            

=------------------------------------------------------------------------------=
   JOB DONE.
=------------------------------------------------------------------------------=
