
     Program PHONON v.7.0 starts on 31May2022 at  1:12:39 

     This program is part of the open-source Quantum ESPRESSO suite
     for quantum simulation of materials; please cite
         "P. Giannozzi et al., J. Phys.:Condens. Matter 21 395502 (2009);
         "P. Giannozzi et al., J. Phys.:Condens. Matter 29 465901 (2017);
         "P. Giannozzi et al., J. Chem. Phys. 152 154105 (2020);
          URL http://www.quantum-espresso.org", 
     in publications or presentations arising from this work. More details at
     http://www.quantum-espresso.org/quote

     Parallel version (MPI), running on     8 processors

     MPI processes distributed on     1 nodes
     R & G space division:  proc/nbgrp/npool/nimage =       8
     5180 MiB available memory on the printing compute node when the environment starts
 
     Reading input from mob2_fonon_03.in

     Reading xml data from directory:

     ./tmp/mob2.save/

     IMPORTANT: XC functional enforced from input :
     Exchange-correlation= PBE
                           (   1   4   3   4   0   0   0)
     Any further DFT definition will be discarded
     Please, verify this is what you really want

 
     Parallelization info
     --------------------
     sticks:   dense  smooth     PW     G-vecs:    dense   smooth      PW
     Min         166      47     15                 5258      799     147
     Max         167      48     16                 5263      802     150
     Sum        1333     379    121                42083     6403    1179
 
     Using Slab Decomposition
 
     Reading collected, re-writing distributed wavefunctions


     Dynamical matrices for ( 3, 3, 3)  uniform grid of q-points
     (   6 q-points):
       N         xq(1)         xq(2)         xq(3) 
       1   0.000000000   0.000000000   0.000000000
       2   0.000000000   0.000000000   0.311376641
       3   0.000000000   0.384900179   0.000000000
       4   0.000000000   0.384900179   0.311376641
       5   0.333333333   0.577350269   0.000000000
       6   0.333333333   0.577350269   0.311376641

     Calculation of q =    0.0000000   0.3849002   0.0000000

     Subspace diagonalization in iterative solution of the eigenvalue problem:
     a serial algorithm will be used

 
     Parallelization info
     --------------------
     sticks:   dense  smooth     PW     G-vecs:    dense   smooth      PW
     Min         166      47     15                 5258      799     165
     Max         167      48     16                 5263      802     170
     Sum        1333     379    127                42083     6403    1341
 
     Using Slab Decomposition
 

     Title: 
     Phonon calc for qp03                                                       


     bravais-lattice index     =            4
     lattice parameter (alat)  =       5.8733  a.u.
     unit-cell volume          =     187.8355 (a.u.)^3
     number of atoms/cell      =            3
     number of atomic types    =            2
     number of electrons       =        19.00
     number of Kohn-Sham states=           20
     kinetic-energy cutoff     =      40.0000  Ry
     charge density cutoff     =     560.0000  Ry
     Exchange-correlation= PBE
                           (   1   4   3   4   0   0   0)

     celldm(1)=   5.873335  celldm(2)=   0.000000  celldm(3)=   1.070515
     celldm(4)=   0.000000  celldm(5)=   0.000000  celldm(6)=   0.000000

     crystal axes: (cart. coord. in units of alat)
               a(1) = (   1.000000   0.000000   0.000000 )  
               a(2) = (  -0.500000   0.866025   0.000000 )  
               a(3) = (   0.000000   0.000000   1.070515 )  

     reciprocal axes: (cart. coord. in units 2 pi/alat)
               b(1) = (  1.000000  0.577350  0.000000 )  
               b(2) = (  0.000000  1.154701  0.000000 )  
               b(3) = (  0.000000  0.000000  0.934130 )  


     PseudoPot. # 1 for Xx read from file:
     /home/marcocarmonaga/Apps/qe-7.0/pseudo/Nb1.00Mo0.00.upf
     MD5 check sum: e4b562b21cfca1bf7e2ab47e57cae993
     Pseudo is Norm-conserving, Zval = 13.0
     Generated using virtual.x code
     Using radial grid of  602 points, 12 beta functions with: 
                l(1) =   0
                l(2) =   0
                l(3) =   1
                l(4) =   1
                l(5) =   2
                l(6) =   2
                l(7) =   0
                l(8) =   0
                l(9) =   1
               l(10) =   1
               l(11) =   2
               l(12) =   2

     PseudoPot. # 2 for B  read from file:
     /home/marcocarmonaga/Apps/qe-7.0/pseudo/B_ONCV_PBE-1.2.upf
     MD5 check sum: eb3cbeacc2d324d57d903df00f564d27
     Pseudo is Norm-conserving, Zval =  3.0
     Generated using ONCVPSP code by D. R. Hamann
     Using radial grid of  602 points,  4 beta functions with: 
                l(1) =   0
                l(2) =   0
                l(3) =   1
                l(4) =   1

     atomic species   valence    mass     pseudopotential
        Mo            13.00    92.90600     Xx( 1.00)
        B              3.00    10.81000     B ( 1.00)

     24 Sym. Ops., with inversion, found



   Cartesian axes

     site n.     atom                  positions (alat units)
         1           Mo  tau(   1) = (   0.0000000   0.0000000   0.0000000  )
         2           B   tau(   2) = (   0.5000000   0.2886751   0.5352574  )
         3           B   tau(   3) = (   0.0000000   0.5773503   0.5352574  )

     number of k points=  3078  Gaussian smearing, width (Ry)=  0.0150

     Number of k-points >= 100: set verbosity='high' to print them.

     Dense  grid:    42083 G-vectors     FFT dimensions: (  45,  45,  48)

     Smooth grid:     6403 G-vectors     FFT dimensions: (  24,  24,  25)

     Estimated max dynamical RAM per process >     110.66 MB

     Estimated total dynamical RAM >     885.26 MB

     The potential is recalculated from file :
     ./tmp/_ph0/mob2.save/charge-density

     Starting wfcs are    0 atomic +   20 random wfcs

     Band Structure Calculation
     Davidson diagonalization with overlap

     ethr =  5.26E-11,  avg # of iterations = 20.8

     total cpu time spent up to now is      214.0 secs

     End of band structure calculation

     Number of k-points >= 100: set verbosity='high' to print the bands.

     the Fermi energy is    18.4736 ev

     Phonon calc for qp03                                                       

     bravais-lattice index     =            4
     lattice parameter (alat)  =       5.8733  a.u.
     unit-cell volume          =     187.8355 (a.u.)^3
     number of atoms/cell      =            3
     number of atomic types    =            2
     kinetic-energy cut-off    =      40.0000  Ry
     charge density cut-off    =     560.0000  Ry
     convergence threshold     =      1.0E-14
     beta                      =       0.7000
     number of iterations used =            4
     Exchange-correlation= PBE
                           (   1   4   3   4   0   0   0)


     celldm(1)=    5.87334  celldm(2)=    0.00000  celldm(3)=    1.07051
     celldm(4)=    0.00000  celldm(5)=    0.00000  celldm(6)=    0.00000

     crystal axes: (cart. coord. in units of alat)
               a(1) = (  1.0000  0.0000  0.0000 )  
               a(2) = ( -0.5000  0.8660  0.0000 )  
               a(3) = (  0.0000  0.0000  1.0705 )  

     reciprocal axes: (cart. coord. in units 2 pi/alat)
               b(1) = (  1.0000  0.5774  0.0000 )  
               b(2) = (  0.0000  1.1547  0.0000 )  
               b(3) = (  0.0000  0.0000  0.9341 )  


     Atoms inside the unit cell: 

     Cartesian axes

     site n.  atom      mass           positions (alat units)
        1     Mo  92.9060   tau(    1) = (    0.00000    0.00000    0.00000  )
        2     B   10.8100   tau(    2) = (    0.50000    0.28868    0.53526  )
        3     B   10.8100   tau(    3) = (    0.00000    0.57735    0.53526  )

     Computing dynamical matrix for 
                    q = (   0.0000000   0.3849002   0.0000000 )
 
      4 Sym.Ops. (no q -> -q+G )


     G cutoff =  489.3255  (   5263 G-vectors)     FFT grid: ( 45, 45, 48)
     G cutoff =  139.8073  (    802 G-vectors)  smooth grid: ( 24, 24, 25)

     number of k points=  3078  Gaussian smearing, width (Ry)=  0.0150

     PseudoPot. # 1 for Xx read from file:
     /home/marcocarmonaga/Apps/qe-7.0/pseudo/Nb1.00Mo0.00.upf
     MD5 check sum: e4b562b21cfca1bf7e2ab47e57cae993
     Pseudo is Norm-conserving, Zval = 13.0
     Generated using virtual.x code
     Using radial grid of  602 points, 12 beta functions with: 
                l(1) =   0
                l(2) =   0
                l(3) =   1
                l(4) =   1
                l(5) =   2
                l(6) =   2
                l(7) =   0
                l(8) =   0
                l(9) =   1
               l(10) =   1
               l(11) =   2
               l(12) =   2

     PseudoPot. # 2 for B  read from file:
     /home/marcocarmonaga/Apps/qe-7.0/pseudo/B_ONCV_PBE-1.2.upf
     MD5 check sum: eb3cbeacc2d324d57d903df00f564d27
     Pseudo is Norm-conserving, Zval =  3.0
     Generated using ONCVPSP code by D. R. Hamann
     Using radial grid of  602 points,  4 beta functions with: 
                l(1) =   0
                l(2) =   0
                l(3) =   1
                l(4) =   1

     Mode symmetry, C_2v (mm2)  point group:


     Atomic displacements:
     There are    9 irreducible representations

     Representation     1      1 modes -  To be done

     Representation     2      1 modes -  To be done

     Representation     3      1 modes -  To be done

     Representation     4      1 modes -  To be done

     Representation     5      1 modes -  To be done

     Representation     6      1 modes -  To be done

     Representation     7      1 modes -  To be done

     Representation     8      1 modes -  To be done

     Representation     9      1 modes -  To be done



     Alpha used in Ewald sum =   2.8000
     PHONON       :   3m35.77s CPU   3m42.01s WALL



     Representation #   1 mode #   1

     Self-consistent Calculation

      iter #   1 total cpu time :   247.2 secs   av.it.:   7.3
      thresh= 1.000E-02 alpha_mix =  0.700 |ddv_scf|^2 =  2.555E-04

      iter #   2 total cpu time :   279.9 secs   av.it.:  12.0
      thresh= 1.599E-03 alpha_mix =  0.700 |ddv_scf|^2 =  1.404E-02

      iter #   3 total cpu time :   306.3 secs   av.it.:   9.2
      thresh= 1.000E-02 alpha_mix =  0.700 |ddv_scf|^2 =  5.179E-06

      iter #   4 total cpu time :   338.0 secs   av.it.:  11.7
      thresh= 2.276E-04 alpha_mix =  0.700 |ddv_scf|^2 =  8.892E-07

      iter #   5 total cpu time :   368.8 secs   av.it.:  11.3
      thresh= 9.430E-05 alpha_mix =  0.700 |ddv_scf|^2 =  2.785E-08

      iter #   6 total cpu time :   400.7 secs   av.it.:  11.8
      thresh= 1.669E-05 alpha_mix =  0.700 |ddv_scf|^2 =  6.101E-10

      iter #   7 total cpu time :   432.5 secs   av.it.:  11.7
      thresh= 2.470E-06 alpha_mix =  0.700 |ddv_scf|^2 =  8.513E-09

      iter #   8 total cpu time :   459.4 secs   av.it.:   9.5
      thresh= 9.227E-06 alpha_mix =  0.700 |ddv_scf|^2 =  4.957E-11

      iter #   9 total cpu time :   490.6 secs   av.it.:  11.5
      thresh= 7.041E-07 alpha_mix =  0.700 |ddv_scf|^2 =  1.741E-10

      iter #  10 total cpu time :   517.9 secs   av.it.:   9.7
      thresh= 1.320E-06 alpha_mix =  0.700 |ddv_scf|^2 =  1.275E-12

      iter #  11 total cpu time :   551.3 secs   av.it.:  12.5
      thresh= 1.129E-07 alpha_mix =  0.700 |ddv_scf|^2 =  2.118E-12

      iter #  12 total cpu time :   581.9 secs   av.it.:  11.2
      thresh= 1.455E-07 alpha_mix =  0.700 |ddv_scf|^2 =  6.363E-13

      iter #  13 total cpu time :   612.0 secs   av.it.:  11.0
      thresh= 7.977E-08 alpha_mix =  0.700 |ddv_scf|^2 =  1.902E-14

      iter #  14 total cpu time :   643.8 secs   av.it.:  11.7
      thresh= 1.379E-08 alpha_mix =  0.700 |ddv_scf|^2 =  3.265E-14

      iter #  15 total cpu time :   672.5 secs   av.it.:  10.4
      thresh= 1.807E-08 alpha_mix =  0.700 |ddv_scf|^2 =  2.175E-16

     End of self-consistent calculation

     Convergence has been achieved 


     Representation #   2 mode #   2

     Self-consistent Calculation

      iter #   1 total cpu time :   704.9 secs   av.it.:   9.4
      thresh= 1.000E-02 alpha_mix =  0.700 |ddv_scf|^2 =  4.047E-03

      iter #   2 total cpu time :   737.5 secs   av.it.:  12.0
      thresh= 6.361E-03 alpha_mix =  0.700 |ddv_scf|^2 =  2.067E-01

      iter #   3 total cpu time :   768.3 secs   av.it.:  11.2
      thresh= 1.000E-02 alpha_mix =  0.700 |ddv_scf|^2 =  3.851E-04

      iter #   4 total cpu time :   798.3 secs   av.it.:  10.9
      thresh= 1.962E-03 alpha_mix =  0.700 |ddv_scf|^2 =  3.693E-05

      iter #   5 total cpu time :   827.9 secs   av.it.:  10.7
      thresh= 6.077E-04 alpha_mix =  0.700 |ddv_scf|^2 =  1.010E-06

      iter #   6 total cpu time :   858.2 secs   av.it.:  11.1
      thresh= 1.005E-04 alpha_mix =  0.700 |ddv_scf|^2 =  2.335E-08

      iter #   7 total cpu time :   888.0 secs   av.it.:  10.8
      thresh= 1.528E-05 alpha_mix =  0.700 |ddv_scf|^2 =  2.664E-11

      iter #   8 total cpu time :   921.2 secs   av.it.:  12.4
      thresh= 5.162E-07 alpha_mix =  0.700 |ddv_scf|^2 =  2.897E-11

      iter #   9 total cpu time :   952.2 secs   av.it.:  11.3
      thresh= 5.382E-07 alpha_mix =  0.700 |ddv_scf|^2 =  1.710E-10

      iter #  10 total cpu time :   980.0 secs   av.it.:   9.9
      thresh= 1.308E-06 alpha_mix =  0.700 |ddv_scf|^2 =  5.977E-12

      iter #  11 total cpu time :  1011.2 secs   av.it.:  11.5
      thresh= 2.445E-07 alpha_mix =  0.700 |ddv_scf|^2 =  2.735E-12

      iter #  12 total cpu time :  1038.9 secs   av.it.:   9.9
      thresh= 1.654E-07 alpha_mix =  0.700 |ddv_scf|^2 =  9.052E-13

      iter #  13 total cpu time :  1068.5 secs   av.it.:  10.7
      thresh= 9.514E-08 alpha_mix =  0.700 |ddv_scf|^2 =  1.811E-13

      iter #  14 total cpu time :  1098.2 secs   av.it.:  10.8
      thresh= 4.255E-08 alpha_mix =  0.700 |ddv_scf|^2 =  4.711E-15

     End of self-consistent calculation

     Convergence has been achieved 


     Representation #   3 mode #   3

     Self-consistent Calculation

      iter #   1 total cpu time :  1124.3 secs   av.it.:   7.3
      thresh= 1.000E-02 alpha_mix =  0.700 |ddv_scf|^2 =  2.555E-04

      iter #   2 total cpu time :  1157.0 secs   av.it.:  12.0
      thresh= 1.599E-03 alpha_mix =  0.700 |ddv_scf|^2 =  1.404E-02

      iter #   3 total cpu time :  1183.4 secs   av.it.:   9.2
      thresh= 1.000E-02 alpha_mix =  0.700 |ddv_scf|^2 =  5.179E-06

      iter #   4 total cpu time :  1215.2 secs   av.it.:  11.7
      thresh= 2.276E-04 alpha_mix =  0.700 |ddv_scf|^2 =  8.893E-07

      iter #   5 total cpu time :  1246.0 secs   av.it.:  11.3
      thresh= 9.430E-05 alpha_mix =  0.700 |ddv_scf|^2 =  2.785E-08

      iter #   6 total cpu time :  1277.8 secs   av.it.:  11.8
      thresh= 1.669E-05 alpha_mix =  0.700 |ddv_scf|^2 =  6.106E-10

      iter #   7 total cpu time :  1309.7 secs   av.it.:  11.7
      thresh= 2.471E-06 alpha_mix =  0.700 |ddv_scf|^2 =  8.514E-09

      iter #   8 total cpu time :  1336.6 secs   av.it.:   9.5
      thresh= 9.227E-06 alpha_mix =  0.700 |ddv_scf|^2 =  4.956E-11

      iter #   9 total cpu time :  1367.9 secs   av.it.:  11.5
      thresh= 7.040E-07 alpha_mix =  0.700 |ddv_scf|^2 =  1.742E-10

      iter #  10 total cpu time :  1395.2 secs   av.it.:   9.7
      thresh= 1.320E-06 alpha_mix =  0.700 |ddv_scf|^2 =  1.275E-12

      iter #  11 total cpu time :  1428.6 secs   av.it.:  12.5
      thresh= 1.129E-07 alpha_mix =  0.700 |ddv_scf|^2 =  2.118E-12

      iter #  12 total cpu time :  1459.3 secs   av.it.:  11.2
      thresh= 1.455E-07 alpha_mix =  0.700 |ddv_scf|^2 =  6.363E-13

      iter #  13 total cpu time :  1489.4 secs   av.it.:  11.0
      thresh= 7.977E-08 alpha_mix =  0.700 |ddv_scf|^2 =  1.905E-14

      iter #  14 total cpu time :  1521.1 secs   av.it.:  11.7
      thresh= 1.380E-08 alpha_mix =  0.700 |ddv_scf|^2 =  3.264E-14

      iter #  15 total cpu time :  1549.8 secs   av.it.:  10.4
      thresh= 1.807E-08 alpha_mix =  0.700 |ddv_scf|^2 =  2.180E-16

     End of self-consistent calculation

     Convergence has been achieved 


     Representation #   4 mode #   4

     Self-consistent Calculation

      iter #   1 total cpu time :  1573.2 secs   av.it.:   6.2
      thresh= 1.000E-02 alpha_mix =  0.700 |ddv_scf|^2 =  5.491E-07

      iter #   2 total cpu time :  1605.8 secs   av.it.:  12.2
      thresh= 7.410E-05 alpha_mix =  0.700 |ddv_scf|^2 =  6.890E-08

      iter #   3 total cpu time :  1637.7 secs   av.it.:  11.9
      thresh= 2.625E-05 alpha_mix =  0.700 |ddv_scf|^2 =  9.848E-10

      iter #   4 total cpu time :  1668.9 secs   av.it.:  11.6
      thresh= 3.138E-06 alpha_mix =  0.700 |ddv_scf|^2 =  5.278E-11

      iter #   5 total cpu time :  1699.2 secs   av.it.:  11.2
      thresh= 7.265E-07 alpha_mix =  0.700 |ddv_scf|^2 =  7.128E-14

      iter #   6 total cpu time :  1733.0 secs   av.it.:  12.7
      thresh= 2.670E-08 alpha_mix =  0.700 |ddv_scf|^2 =  4.821E-16

     End of self-consistent calculation

     Convergence has been achieved 


     Representation #   5 mode #   5

     Self-consistent Calculation

      iter #   1 total cpu time :  1756.4 secs   av.it.:   6.2
      thresh= 1.000E-02 alpha_mix =  0.700 |ddv_scf|^2 =  5.491E-07

      iter #   2 total cpu time :  1788.9 secs   av.it.:  12.2
      thresh= 7.410E-05 alpha_mix =  0.700 |ddv_scf|^2 =  6.890E-08

      iter #   3 total cpu time :  1820.8 secs   av.it.:  11.9
      thresh= 2.625E-05 alpha_mix =  0.700 |ddv_scf|^2 =  9.848E-10

      iter #   4 total cpu time :  1852.0 secs   av.it.:  11.6
      thresh= 3.138E-06 alpha_mix =  0.700 |ddv_scf|^2 =  5.278E-11

      iter #   5 total cpu time :  1882.2 secs   av.it.:  11.2
      thresh= 7.265E-07 alpha_mix =  0.700 |ddv_scf|^2 =  7.128E-14

      iter #   6 total cpu time :  1916.0 secs   av.it.:  12.7
      thresh= 2.670E-08 alpha_mix =  0.700 |ddv_scf|^2 =  4.821E-16

     End of self-consistent calculation

     Convergence has been achieved 


     Representation #   6 mode #   6

     Self-consistent Calculation

      iter #   1 total cpu time :  1945.4 secs   av.it.:   8.2
      thresh= 1.000E-02 alpha_mix =  0.700 |ddv_scf|^2 =  1.545E-05

      iter #   2 total cpu time :  1977.7 secs   av.it.:  12.1
      thresh= 3.931E-04 alpha_mix =  0.700 |ddv_scf|^2 =  2.695E-06

      iter #   3 total cpu time :  2009.2 secs   av.it.:  11.7
      thresh= 1.642E-04 alpha_mix =  0.700 |ddv_scf|^2 =  2.175E-09

      iter #   4 total cpu time :  2041.9 secs   av.it.:  12.2
      thresh= 4.664E-06 alpha_mix =  0.700 |ddv_scf|^2 =  1.633E-10

      iter #   5 total cpu time :  2073.1 secs   av.it.:  11.6
      thresh= 1.278E-06 alpha_mix =  0.700 |ddv_scf|^2 =  8.810E-13

      iter #   6 total cpu time :  2105.6 secs   av.it.:  12.1
      thresh= 9.386E-08 alpha_mix =  0.700 |ddv_scf|^2 =  5.905E-15

     End of self-consistent calculation

     Convergence has been achieved 


     Representation #   7 mode #   7

     Self-consistent Calculation

      iter #   1 total cpu time :  2134.9 secs   av.it.:   8.2
      thresh= 1.000E-02 alpha_mix =  0.700 |ddv_scf|^2 =  1.670E-05

      iter #   2 total cpu time :  2167.4 secs   av.it.:  12.1
      thresh= 4.087E-04 alpha_mix =  0.700 |ddv_scf|^2 =  3.036E-06

      iter #   3 total cpu time :  2199.1 secs   av.it.:  11.8
      thresh= 1.742E-04 alpha_mix =  0.700 |ddv_scf|^2 =  2.537E-09

      iter #   4 total cpu time :  2232.1 secs   av.it.:  12.4
      thresh= 5.037E-06 alpha_mix =  0.700 |ddv_scf|^2 =  1.853E-10

      iter #   5 total cpu time :  2263.8 secs   av.it.:  11.8
      thresh= 1.361E-06 alpha_mix =  0.700 |ddv_scf|^2 =  1.317E-12

      iter #   6 total cpu time :  2295.6 secs   av.it.:  11.8
      thresh= 1.148E-07 alpha_mix =  0.700 |ddv_scf|^2 =  3.706E-14

      iter #   7 total cpu time :  2327.9 secs   av.it.:  12.0
      thresh= 1.925E-08 alpha_mix =  0.700 |ddv_scf|^2 =  4.607E-16

     End of self-consistent calculation

     Convergence has been achieved 


     Representation #   8 mode #   8

     Self-consistent Calculation

      iter #   1 total cpu time :  2351.1 secs   av.it.:   6.1
      thresh= 1.000E-02 alpha_mix =  0.700 |ddv_scf|^2 =  4.739E-07

      iter #   2 total cpu time :  2384.1 secs   av.it.:  12.4
      thresh= 6.884E-05 alpha_mix =  0.700 |ddv_scf|^2 =  5.299E-08

      iter #   3 total cpu time :  2416.5 secs   av.it.:  12.1
      thresh= 2.302E-05 alpha_mix =  0.700 |ddv_scf|^2 =  1.110E-09

      iter #   4 total cpu time :  2448.3 secs   av.it.:  11.8
      thresh= 3.332E-06 alpha_mix =  0.700 |ddv_scf|^2 =  6.416E-11

      iter #   5 total cpu time :  2479.7 secs   av.it.:  11.7
      thresh= 8.010E-07 alpha_mix =  0.700 |ddv_scf|^2 =  2.029E-13

      iter #   6 total cpu time :  2513.2 secs   av.it.:  12.6
      thresh= 4.505E-08 alpha_mix =  0.700 |ddv_scf|^2 =  8.981E-16

     End of self-consistent calculation

     Convergence has been achieved 


     Representation #   9 mode #   9

     Self-consistent Calculation

      iter #   1 total cpu time :  2536.5 secs   av.it.:   6.1
      thresh= 1.000E-02 alpha_mix =  0.700 |ddv_scf|^2 =  4.739E-07

      iter #   2 total cpu time :  2569.5 secs   av.it.:  12.4
      thresh= 6.884E-05 alpha_mix =  0.700 |ddv_scf|^2 =  5.299E-08

      iter #   3 total cpu time :  2601.9 secs   av.it.:  12.1
      thresh= 2.302E-05 alpha_mix =  0.700 |ddv_scf|^2 =  1.110E-09

      iter #   4 total cpu time :  2633.7 secs   av.it.:  11.8
      thresh= 3.332E-06 alpha_mix =  0.700 |ddv_scf|^2 =  6.416E-11

      iter #   5 total cpu time :  2665.1 secs   av.it.:  11.7
      thresh= 8.010E-07 alpha_mix =  0.700 |ddv_scf|^2 =  2.029E-13

      iter #   6 total cpu time :  2698.6 secs   av.it.:  12.6
      thresh= 4.505E-08 alpha_mix =  0.700 |ddv_scf|^2 =  8.981E-16

     End of self-consistent calculation

     Convergence has been achieved 
 
     Number of q in the star =    6
     List of q in the star:
          1   0.000000000   0.384900179   0.000000000
          2   0.333333333   0.192450090   0.000000000
          3  -0.333333333   0.192450090   0.000000000
          4  -0.333333333  -0.192450090   0.000000000
          5   0.000000000  -0.384900179   0.000000000
          6   0.333333333  -0.192450090   0.000000000

     Diagonalizing the dynamical matrix

     q = (    0.000000000   0.384900179   0.000000000 ) 

 **************************************************************************
     freq (    1) =       5.032777 [THz] =     167.875368 [cm-1]
     freq (    2) =       5.451442 [THz] =     181.840528 [cm-1]
     freq (    3) =       6.873332 [THz] =     229.269662 [cm-1]
     freq (    4) =      14.389612 [THz] =     479.985795 [cm-1]
     freq (    5) =      14.477242 [THz] =     482.908827 [cm-1]
     freq (    6) =      15.300867 [THz] =     510.381973 [cm-1]
     freq (    7) =      18.104590 [THz] =     603.904130 [cm-1]
     freq (    8) =      22.346771 [THz] =     745.408051 [cm-1]
     freq (    9) =      22.874126 [THz] =     762.998702 [cm-1]
 **************************************************************************

     Mode symmetry, C_2v (mm2)  point group:

     freq (   1-   1) =        167.9  [cm-1]   --> B_2  D_4  S_4      
     freq (   2-   2) =        181.8  [cm-1]   --> B_1  D_3  S_3      
     freq (   3-   3) =        229.3  [cm-1]   --> A_1  D_1  S_1      
     freq (   4-   4) =        480.0  [cm-1]   --> B_2  D_4  S_4      
     freq (   5-   5) =        482.9  [cm-1]   --> B_1  D_3  S_3      
     freq (   6-   6) =        510.4  [cm-1]   --> B_2  D_4  S_4      
     freq (   7-   7) =        603.9  [cm-1]   --> A_1  D_1  S_1      
     freq (   8-   8) =        745.4  [cm-1]   --> B_1  D_3  S_3      
     freq (   9-   9) =        763.0  [cm-1]   --> A_1  D_1  S_1      
 
     init_run     :      0.11s CPU      0.12s WALL (       1 calls)
     electrons    :    207.82s CPU    213.89s WALL (       1 calls)

     Called by init_run:
     wfcinit      :      0.00s CPU      0.00s WALL (       1 calls)
     potinit      :      0.01s CPU      0.01s WALL (       1 calls)
     hinit0       :      0.02s CPU      0.03s WALL (       1 calls)

     Called by electrons:
     c_bands      :    207.70s CPU    213.77s WALL (       1 calls)
     v_of_rho     :      0.02s CPU      0.02s WALL (       2 calls)

     Called by c_bands:
     init_us_2    :     15.04s CPU     15.86s WALL (  158517 calls)
     init_us_2:cp :     14.58s CPU     15.45s WALL (  158517 calls)
     cegterg      :    196.28s CPU    201.96s WALL (    4130 calls)

     Called by *egterg:
     cdiaghg      :     77.47s CPU     79.42s WALL (   67040 calls)
     h_psi        :   1802.19s CPU   1906.65s WALL ( 2402089 calls)
     g_psi        :      0.45s CPU      0.46s WALL (   63962 calls)

     Called by h_psi:
     h_psi:calbec :    104.48s CPU    110.55s WALL ( 2402089 calls)
     vloc_psi     :   1577.68s CPU   1669.09s WALL ( 2402089 calls)
     add_vuspsi   :     95.19s CPU    101.13s WALL ( 2402089 calls)

     General routines
     calbec       :    185.29s CPU    196.35s WALL ( 4803802 calls)
     fft          :      0.43s CPU      0.46s WALL (    1079 calls)
     ffts         :      1.14s CPU      1.18s WALL (   14096 calls)
     fftw         :   1674.58s CPU   1773.90s WALL (35576364 calls)
     interpolate  :      0.10s CPU      0.10s WALL (     164 calls)
 
     Parallel routines
 
     PHONON       :  42m33.28s CPU  44m59.67s WALL

     INITIALIZATION: 
     phq_setup    :      0.01s CPU      0.03s WALL (       1 calls)
     phq_init     :      7.35s CPU      7.39s WALL (       1 calls)
 
     phq_init     :      7.35s CPU      7.39s WALL (       1 calls)
     init_vloc    :      0.02s CPU      0.02s WALL (       2 calls)
     init_us_1    :      0.01s CPU      0.03s WALL (       2 calls)
     init_us_2    :     15.04s CPU     15.86s WALL (  158517 calls)
 
     DYNAMICAL MATRIX:
     dynmat0      :      6.51s CPU      6.53s WALL (       1 calls)
     phqscf       :   2337.47s CPU   2477.61s WALL (       1 calls)
     dynmatrix    :      0.00s CPU      0.00s WALL (       1 calls)
 
     phqscf       :   2337.47s CPU   2477.61s WALL (       1 calls)
     solve_linter :   2328.58s CPU   2468.58s WALL (       9 calls)
     drhodv       :      8.89s CPU      9.03s WALL (       9 calls)
 
     dynmat0      :      6.51s CPU      6.53s WALL (       1 calls)
     dynmat_us    :      6.50s CPU      6.52s WALL (       1 calls)
     d2ionq       :      0.00s CPU      0.00s WALL (       1 calls)
 
     dynmat_us    :      6.50s CPU      6.52s WALL (       1 calls)
 
     phqscf       :   2337.47s CPU   2477.61s WALL (       1 calls)
     solve_linter :   2328.58s CPU   2468.58s WALL (       9 calls)
 
     solve_linter :   2328.58s CPU   2468.58s WALL (       9 calls)
     dvqpsi_us    :     47.82s CPU     49.63s WALL (   13851 calls)
     sth_kernel   :   2275.45s CPU   2413.55s WALL (      81 calls)
     apply_dpot_b :    128.91s CPU    137.44s WALL (  110808 calls)
     ortho        :     13.20s CPU     14.05s WALL (  124659 calls)
     cgsolve      :   1963.13s CPU   2080.07s WALL (  124659 calls)
     incdrhoscf   :    136.51s CPU    146.03s WALL (  124659 calls)
     dv_of_drho   :      0.79s CPU      0.80s WALL (      81 calls)
     mix_pot      :      0.17s CPU      0.17s WALL (      81 calls)
     psymdvscf    :      2.70s CPU      2.71s WALL (      81 calls)
 
     dvqpsi_us    :     47.82s CPU     49.63s WALL (   13851 calls)
     dvqpsi_us_on :     16.65s CPU     17.23s WALL (   13851 calls)
 
     cgsolve      :   1963.13s CPU   2080.07s WALL (  124659 calls)
     ch_psi       :   1905.66s CPU   2018.69s WALL ( 2330919 calls)
 
     ch_psi       :   1905.66s CPU   2018.69s WALL ( 2330919 calls)
     h_psi        :   1802.19s CPU   1906.65s WALL ( 2402089 calls)
     last         :    169.98s CPU    180.17s WALL ( 2330919 calls)
 
     h_psi        :   1802.19s CPU   1906.65s WALL ( 2402089 calls)
     add_vuspsi   :     95.19s CPU    101.13s WALL ( 2402089 calls)
 
     incdrhoscf   :    136.51s CPU    146.03s WALL (  124659 calls)
 
 
      General routines
     calbec       :    185.29s CPU    196.35s WALL ( 4803802 calls)
     fft          :      0.43s CPU      0.46s WALL (    1079 calls)
     ffts         :      1.14s CPU      1.18s WALL (   14096 calls)
     fftw         :   1674.58s CPU   1773.90s WALL (35576364 calls)
 
 
     PHONON       :  42m33.28s CPU  44m59.67s WALL

 
   This run was terminated on:   1:57:39  31May2022            

=------------------------------------------------------------------------------=
   JOB DONE.
=------------------------------------------------------------------------------=
