
     Program PHONON v.7.0 starts on 31May2022 at  1:57:39 

     This program is part of the open-source Quantum ESPRESSO suite
     for quantum simulation of materials; please cite
         "P. Giannozzi et al., J. Phys.:Condens. Matter 21 395502 (2009);
         "P. Giannozzi et al., J. Phys.:Condens. Matter 29 465901 (2017);
         "P. Giannozzi et al., J. Chem. Phys. 152 154105 (2020);
          URL http://www.quantum-espresso.org", 
     in publications or presentations arising from this work. More details at
     http://www.quantum-espresso.org/quote

     Parallel version (MPI), running on     8 processors

     MPI processes distributed on     1 nodes
     R & G space division:  proc/nbgrp/npool/nimage =       8
     5177 MiB available memory on the printing compute node when the environment starts
 
     Reading input from mob2_fonon_04.in

     Reading xml data from directory:

     ./tmp/mob2.save/

     IMPORTANT: XC functional enforced from input :
     Exchange-correlation= PBE
                           (   1   4   3   4   0   0   0)
     Any further DFT definition will be discarded
     Please, verify this is what you really want

 
     Parallelization info
     --------------------
     sticks:   dense  smooth     PW     G-vecs:    dense   smooth      PW
     Min         166      47     15                 5258      799     147
     Max         167      48     16                 5263      802     150
     Sum        1333     379    121                42083     6403    1179
 
     Using Slab Decomposition
 
     Reading collected, re-writing distributed wavefunctions


     Dynamical matrices for ( 3, 3, 3)  uniform grid of q-points
     (   6 q-points):
       N         xq(1)         xq(2)         xq(3) 
       1   0.000000000   0.000000000   0.000000000
       2   0.000000000   0.000000000   0.311376641
       3   0.000000000   0.384900179   0.000000000
       4   0.000000000   0.384900179   0.311376641
       5   0.333333333   0.577350269   0.000000000
       6   0.333333333   0.577350269   0.311376641

     Calculation of q =    0.0000000   0.3849002   0.3113766

     Subspace diagonalization in iterative solution of the eigenvalue problem:
     a serial algorithm will be used

 
     Parallelization info
     --------------------
     sticks:   dense  smooth     PW     G-vecs:    dense   smooth      PW
     Min         166      47     17                 5258      799     179
     Max         167      48     18                 5263      802     182
     Sum        1333     379    139                42083     6403    1449
 
     Using Slab Decomposition
 

     Title: 
     Phonon calc for qp04                                                       


     bravais-lattice index     =            4
     lattice parameter (alat)  =       5.8733  a.u.
     unit-cell volume          =     187.8355 (a.u.)^3
     number of atoms/cell      =            3
     number of atomic types    =            2
     number of electrons       =        19.00
     number of Kohn-Sham states=           20
     kinetic-energy cutoff     =      40.0000  Ry
     charge density cutoff     =     560.0000  Ry
     Exchange-correlation= PBE
                           (   1   4   3   4   0   0   0)

     celldm(1)=   5.873335  celldm(2)=   0.000000  celldm(3)=   1.070515
     celldm(4)=   0.000000  celldm(5)=   0.000000  celldm(6)=   0.000000

     crystal axes: (cart. coord. in units of alat)
               a(1) = (   1.000000   0.000000   0.000000 )  
               a(2) = (  -0.500000   0.866025   0.000000 )  
               a(3) = (   0.000000   0.000000   1.070515 )  

     reciprocal axes: (cart. coord. in units 2 pi/alat)
               b(1) = (  1.000000  0.577350  0.000000 )  
               b(2) = (  0.000000  1.154701  0.000000 )  
               b(3) = (  0.000000  0.000000  0.934130 )  


     PseudoPot. # 1 for Xx read from file:
     /home/marcocarmonaga/Apps/qe-7.0/pseudo/Nb1.00Mo0.00.upf
     MD5 check sum: e4b562b21cfca1bf7e2ab47e57cae993
     Pseudo is Norm-conserving, Zval = 13.0
     Generated using virtual.x code
     Using radial grid of  602 points, 12 beta functions with: 
                l(1) =   0
                l(2) =   0
                l(3) =   1
                l(4) =   1
                l(5) =   2
                l(6) =   2
                l(7) =   0
                l(8) =   0
                l(9) =   1
               l(10) =   1
               l(11) =   2
               l(12) =   2

     PseudoPot. # 2 for B  read from file:
     /home/marcocarmonaga/Apps/qe-7.0/pseudo/B_ONCV_PBE-1.2.upf
     MD5 check sum: eb3cbeacc2d324d57d903df00f564d27
     Pseudo is Norm-conserving, Zval =  3.0
     Generated using ONCVPSP code by D. R. Hamann
     Using radial grid of  602 points,  4 beta functions with: 
                l(1) =   0
                l(2) =   0
                l(3) =   1
                l(4) =   1

     atomic species   valence    mass     pseudopotential
        Mo            13.00    92.90600     Xx( 1.00)
        B              3.00    10.81000     B ( 1.00)

     24 Sym. Ops., with inversion, found



   Cartesian axes

     site n.     atom                  positions (alat units)
         1           Mo  tau(   1) = (   0.0000000   0.0000000   0.0000000  )
         2           B   tau(   2) = (   0.5000000   0.2886751   0.5352574  )
         3           B   tau(   3) = (   0.0000000   0.5773503   0.5352574  )

     number of k points=  6156  Gaussian smearing, width (Ry)=  0.0150

     Number of k-points >= 100: set verbosity='high' to print them.

     Dense  grid:    42083 G-vectors     FFT dimensions: (  45,  45,  48)

     Smooth grid:     6403 G-vectors     FFT dimensions: (  24,  24,  25)

     Estimated max dynamical RAM per process >     204.66 MB

     Estimated total dynamical RAM >       1.60 GB

     The potential is recalculated from file :
     ./tmp/_ph0/mob2.save/charge-density

     Starting wfcs are    0 atomic +   20 random wfcs

     Band Structure Calculation
     Davidson diagonalization with overlap

     ethr =  5.26E-11,  avg # of iterations = 21.0

     total cpu time spent up to now is      428.0 secs

     End of band structure calculation

     Number of k-points >= 100: set verbosity='high' to print the bands.

     the Fermi energy is    18.4736 ev

     Phonon calc for qp04                                                       

     bravais-lattice index     =            4
     lattice parameter (alat)  =       5.8733  a.u.
     unit-cell volume          =     187.8355 (a.u.)^3
     number of atoms/cell      =            3
     number of atomic types    =            2
     kinetic-energy cut-off    =      40.0000  Ry
     charge density cut-off    =     560.0000  Ry
     convergence threshold     =      1.0E-14
     beta                      =       0.7000
     number of iterations used =            4
     Exchange-correlation= PBE
                           (   1   4   3   4   0   0   0)


     celldm(1)=    5.87334  celldm(2)=    0.00000  celldm(3)=    1.07051
     celldm(4)=    0.00000  celldm(5)=    0.00000  celldm(6)=    0.00000

     crystal axes: (cart. coord. in units of alat)
               a(1) = (  1.0000  0.0000  0.0000 )  
               a(2) = ( -0.5000  0.8660  0.0000 )  
               a(3) = (  0.0000  0.0000  1.0705 )  

     reciprocal axes: (cart. coord. in units 2 pi/alat)
               b(1) = (  1.0000  0.5774  0.0000 )  
               b(2) = (  0.0000  1.1547  0.0000 )  
               b(3) = (  0.0000  0.0000  0.9341 )  


     Atoms inside the unit cell: 

     Cartesian axes

     site n.  atom      mass           positions (alat units)
        1     Mo  92.9060   tau(    1) = (    0.00000    0.00000    0.00000  )
        2     B   10.8100   tau(    2) = (    0.50000    0.28868    0.53526  )
        3     B   10.8100   tau(    3) = (    0.00000    0.57735    0.53526  )

     Computing dynamical matrix for 
                    q = (   0.0000000   0.3849002   0.3113766 )
 
      2 Sym.Ops. (no q -> -q+G )


     G cutoff =  489.3255  (   5263 G-vectors)     FFT grid: ( 45, 45, 48)
     G cutoff =  139.8073  (    802 G-vectors)  smooth grid: ( 24, 24, 25)

     number of k points=  6156  Gaussian smearing, width (Ry)=  0.0150

     PseudoPot. # 1 for Xx read from file:
     /home/marcocarmonaga/Apps/qe-7.0/pseudo/Nb1.00Mo0.00.upf
     MD5 check sum: e4b562b21cfca1bf7e2ab47e57cae993
     Pseudo is Norm-conserving, Zval = 13.0
     Generated using virtual.x code
     Using radial grid of  602 points, 12 beta functions with: 
                l(1) =   0
                l(2) =   0
                l(3) =   1
                l(4) =   1
                l(5) =   2
                l(6) =   2
                l(7) =   0
                l(8) =   0
                l(9) =   1
               l(10) =   1
               l(11) =   2
               l(12) =   2

     PseudoPot. # 2 for B  read from file:
     /home/marcocarmonaga/Apps/qe-7.0/pseudo/B_ONCV_PBE-1.2.upf
     MD5 check sum: eb3cbeacc2d324d57d903df00f564d27
     Pseudo is Norm-conserving, Zval =  3.0
     Generated using ONCVPSP code by D. R. Hamann
     Using radial grid of  602 points,  4 beta functions with: 
                l(1) =   0
                l(2) =   0
                l(3) =   1
                l(4) =   1

     Mode symmetry, C_s (m)     point group:


     Atomic displacements:
     There are    9 irreducible representations

     Representation     1      1 modes -  To be done

     Representation     2      1 modes -  To be done

     Representation     3      1 modes -  To be done

     Representation     4      1 modes -  To be done

     Representation     5      1 modes -  To be done

     Representation     6      1 modes -  To be done

     Representation     7      1 modes -  To be done

     Representation     8      1 modes -  To be done

     Representation     9      1 modes -  To be done



     Alpha used in Ewald sum =   2.8000
     PHONON       :   7m11.75s CPU   7m23.37s WALL



     Representation #   1 mode #   1

     Self-consistent Calculation

      iter #   1 total cpu time :   493.0 secs   av.it.:   7.1
      thresh= 1.000E-02 alpha_mix =  0.700 |ddv_scf|^2 =  2.537E-05

      iter #   2 total cpu time :   559.7 secs   av.it.:  12.5
      thresh= 5.037E-04 alpha_mix =  0.700 |ddv_scf|^2 =  4.485E-04

      iter #   3 total cpu time :   616.2 secs   av.it.:  10.2
      thresh= 2.118E-03 alpha_mix =  0.700 |ddv_scf|^2 =  6.815E-06

      iter #   4 total cpu time :   676.9 secs   av.it.:  11.2
      thresh= 2.611E-04 alpha_mix =  0.700 |ddv_scf|^2 =  1.599E-07

      iter #   5 total cpu time :   740.4 secs   av.it.:  11.8
      thresh= 3.998E-05 alpha_mix =  0.700 |ddv_scf|^2 =  7.323E-09

      iter #   6 total cpu time :   803.7 secs   av.it.:  11.8
      thresh= 8.558E-06 alpha_mix =  0.700 |ddv_scf|^2 =  1.165E-10

      iter #   7 total cpu time :   869.6 secs   av.it.:  12.5
      thresh= 1.080E-06 alpha_mix =  0.700 |ddv_scf|^2 =  2.027E-11

      iter #   8 total cpu time :   935.4 secs   av.it.:  12.5
      thresh= 4.502E-07 alpha_mix =  0.700 |ddv_scf|^2 =  2.971E-11

      iter #   9 total cpu time :   996.7 secs   av.it.:  11.3
      thresh= 5.451E-07 alpha_mix =  0.700 |ddv_scf|^2 =  3.243E-11

      iter #  10 total cpu time :  1057.1 secs   av.it.:  11.1
      thresh= 5.695E-07 alpha_mix =  0.700 |ddv_scf|^2 =  8.492E-12

      iter #  11 total cpu time :  1118.1 secs   av.it.:  11.2
      thresh= 2.914E-07 alpha_mix =  0.700 |ddv_scf|^2 =  4.159E-12

      iter #  12 total cpu time :  1176.4 secs   av.it.:  10.6
      thresh= 2.039E-07 alpha_mix =  0.700 |ddv_scf|^2 =  3.504E-13

      iter #  13 total cpu time :  1238.1 secs   av.it.:  11.4
      thresh= 5.920E-08 alpha_mix =  0.700 |ddv_scf|^2 =  3.003E-14

      iter #  14 total cpu time :  1301.2 secs   av.it.:  11.8
      thresh= 1.733E-08 alpha_mix =  0.700 |ddv_scf|^2 =  5.157E-15

     End of self-consistent calculation

     Convergence has been achieved 


     Representation #   2 mode #   2

     Self-consistent Calculation

      iter #   1 total cpu time :  1363.6 secs   av.it.:   9.0
      thresh= 1.000E-02 alpha_mix =  0.700 |ddv_scf|^2 =  3.774E-04

      iter #   2 total cpu time :  1430.0 secs   av.it.:  12.5
      thresh= 1.943E-03 alpha_mix =  0.700 |ddv_scf|^2 =  5.707E-03

      iter #   3 total cpu time :  1486.7 secs   av.it.:  10.3
      thresh= 7.554E-03 alpha_mix =  0.700 |ddv_scf|^2 =  1.704E-04

      iter #   4 total cpu time :  1546.4 secs   av.it.:  10.9
      thresh= 1.305E-03 alpha_mix =  0.700 |ddv_scf|^2 =  2.854E-06

      iter #   5 total cpu time :  1609.1 secs   av.it.:  11.7
      thresh= 1.689E-04 alpha_mix =  0.700 |ddv_scf|^2 =  8.176E-08

      iter #   6 total cpu time :  1672.2 secs   av.it.:  11.8
      thresh= 2.859E-05 alpha_mix =  0.700 |ddv_scf|^2 =  2.161E-09

      iter #   7 total cpu time :  1735.8 secs   av.it.:  11.9
      thresh= 4.648E-06 alpha_mix =  0.700 |ddv_scf|^2 =  3.074E-11

      iter #   8 total cpu time :  1802.8 secs   av.it.:  12.7
      thresh= 5.545E-07 alpha_mix =  0.700 |ddv_scf|^2 =  5.413E-11

      iter #   9 total cpu time :  1862.8 secs   av.it.:  11.0
      thresh= 7.358E-07 alpha_mix =  0.700 |ddv_scf|^2 =  2.839E-11

      iter #  10 total cpu time :  1922.8 secs   av.it.:  11.0
      thresh= 5.328E-07 alpha_mix =  0.700 |ddv_scf|^2 =  7.506E-12

      iter #  11 total cpu time :  1982.5 secs   av.it.:  10.9
      thresh= 2.740E-07 alpha_mix =  0.700 |ddv_scf|^2 =  1.503E-12

      iter #  12 total cpu time :  2045.7 secs   av.it.:  11.8
      thresh= 1.226E-07 alpha_mix =  0.700 |ddv_scf|^2 =  5.174E-13

      iter #  13 total cpu time :  2105.5 secs   av.it.:  11.0
      thresh= 7.193E-08 alpha_mix =  0.700 |ddv_scf|^2 =  1.042E-14

      iter #  14 total cpu time :  2170.3 secs   av.it.:  12.1
      thresh= 1.021E-08 alpha_mix =  0.700 |ddv_scf|^2 =  1.593E-15

     End of self-consistent calculation

     Convergence has been achieved 


     Representation #   3 mode #   3

     Self-consistent Calculation

      iter #   1 total cpu time :  2220.3 secs   av.it.:   6.8
      thresh= 1.000E-02 alpha_mix =  0.700 |ddv_scf|^2 =  2.823E-05

      iter #   2 total cpu time :  2287.2 secs   av.it.:  12.5
      thresh= 5.313E-04 alpha_mix =  0.700 |ddv_scf|^2 =  6.285E-04

      iter #   3 total cpu time :  2343.4 secs   av.it.:  10.1
      thresh= 2.507E-03 alpha_mix =  0.700 |ddv_scf|^2 =  1.433E-06

      iter #   4 total cpu time :  2405.2 secs   av.it.:  11.5
      thresh= 1.197E-04 alpha_mix =  0.700 |ddv_scf|^2 =  3.328E-08

      iter #   5 total cpu time :  2469.8 secs   av.it.:  12.0
      thresh= 1.824E-05 alpha_mix =  0.700 |ddv_scf|^2 =  1.419E-08

      iter #   6 total cpu time :  2531.9 secs   av.it.:  11.6
      thresh= 1.191E-05 alpha_mix =  0.700 |ddv_scf|^2 =  3.164E-10

      iter #   7 total cpu time :  2596.5 secs   av.it.:  12.0
      thresh= 1.779E-06 alpha_mix =  0.700 |ddv_scf|^2 =  4.847E-11

      iter #   8 total cpu time :  2660.6 secs   av.it.:  12.0
      thresh= 6.962E-07 alpha_mix =  0.700 |ddv_scf|^2 =  8.852E-12

      iter #   9 total cpu time :  2727.0 secs   av.it.:  12.5
      thresh= 2.975E-07 alpha_mix =  0.700 |ddv_scf|^2 =  4.162E-11

      iter #  10 total cpu time :  2786.4 secs   av.it.:  10.8
      thresh= 6.452E-07 alpha_mix =  0.700 |ddv_scf|^2 =  8.295E-12

      iter #  11 total cpu time :  2846.2 secs   av.it.:  10.9
      thresh= 2.880E-07 alpha_mix =  0.700 |ddv_scf|^2 =  3.158E-12

      iter #  12 total cpu time :  2906.9 secs   av.it.:  11.2
      thresh= 1.777E-07 alpha_mix =  0.700 |ddv_scf|^2 =  1.316E-13

      iter #  13 total cpu time :  2971.6 secs   av.it.:  12.0
      thresh= 3.628E-08 alpha_mix =  0.700 |ddv_scf|^2 =  2.097E-14

      iter #  14 total cpu time :  3034.9 secs   av.it.:  11.8
      thresh= 1.448E-08 alpha_mix =  0.700 |ddv_scf|^2 =  1.639E-15

     End of self-consistent calculation

     Convergence has been achieved 


     Representation #   4 mode #   4

     Self-consistent Calculation

      iter #   1 total cpu time :  3085.2 secs   av.it.:   6.9
      thresh= 1.000E-02 alpha_mix =  0.700 |ddv_scf|^2 =  3.033E-05

      iter #   2 total cpu time :  3152.1 secs   av.it.:  12.5
      thresh= 5.507E-04 alpha_mix =  0.700 |ddv_scf|^2 =  6.834E-04

      iter #   3 total cpu time :  3208.2 secs   av.it.:  10.1
      thresh= 2.614E-03 alpha_mix =  0.700 |ddv_scf|^2 =  1.281E-06

      iter #   4 total cpu time :  3270.1 secs   av.it.:  11.5
      thresh= 1.132E-04 alpha_mix =  0.700 |ddv_scf|^2 =  3.076E-08

      iter #   5 total cpu time :  3334.5 secs   av.it.:  12.0
      thresh= 1.754E-05 alpha_mix =  0.700 |ddv_scf|^2 =  1.349E-08

      iter #   6 total cpu time :  3396.6 secs   av.it.:  11.6
      thresh= 1.161E-05 alpha_mix =  0.700 |ddv_scf|^2 =  2.982E-10

      iter #   7 total cpu time :  3461.0 secs   av.it.:  12.0
      thresh= 1.727E-06 alpha_mix =  0.700 |ddv_scf|^2 =  4.801E-11

      iter #   8 total cpu time :  3525.4 secs   av.it.:  12.0
      thresh= 6.929E-07 alpha_mix =  0.700 |ddv_scf|^2 =  1.923E-11

      iter #   9 total cpu time :  3590.4 secs   av.it.:  12.1
      thresh= 4.386E-07 alpha_mix =  0.700 |ddv_scf|^2 =  6.750E-11

      iter #  10 total cpu time :  3648.7 secs   av.it.:  10.6
      thresh= 8.216E-07 alpha_mix =  0.700 |ddv_scf|^2 =  3.487E-12

      iter #  11 total cpu time :  3710.9 secs   av.it.:  11.5
      thresh= 1.867E-07 alpha_mix =  0.700 |ddv_scf|^2 =  4.648E-12

      iter #  12 total cpu time :  3770.7 secs   av.it.:  10.9
      thresh= 2.156E-07 alpha_mix =  0.700 |ddv_scf|^2 =  2.120E-13

      iter #  13 total cpu time :  3834.5 secs   av.it.:  11.8
      thresh= 4.605E-08 alpha_mix =  0.700 |ddv_scf|^2 =  2.762E-14

      iter #  14 total cpu time :  3897.6 secs   av.it.:  11.6
      thresh= 1.662E-08 alpha_mix =  0.700 |ddv_scf|^2 =  2.583E-15

     End of self-consistent calculation

     Convergence has been achieved 


     Representation #   5 mode #   5

     Self-consistent Calculation

      iter #   1 total cpu time :  3960.5 secs   av.it.:   9.2
      thresh= 1.000E-02 alpha_mix =  0.700 |ddv_scf|^2 =  5.282E-04

      iter #   2 total cpu time :  4027.2 secs   av.it.:  12.5
      thresh= 2.298E-03 alpha_mix =  0.700 |ddv_scf|^2 =  9.783E-03

      iter #   3 total cpu time :  4083.8 secs   av.it.:  10.2
      thresh= 9.891E-03 alpha_mix =  0.700 |ddv_scf|^2 =  1.025E-04

      iter #   4 total cpu time :  4144.7 secs   av.it.:  11.3
      thresh= 1.012E-03 alpha_mix =  0.700 |ddv_scf|^2 =  3.946E-06

      iter #   5 total cpu time :  4206.0 secs   av.it.:  11.4
      thresh= 1.987E-04 alpha_mix =  0.700 |ddv_scf|^2 =  7.523E-08

      iter #   6 total cpu time :  4268.5 secs   av.it.:  11.7
      thresh= 2.743E-05 alpha_mix =  0.700 |ddv_scf|^2 =  5.956E-09

      iter #   7 total cpu time :  4331.8 secs   av.it.:  11.8
      thresh= 7.718E-06 alpha_mix =  0.700 |ddv_scf|^2 =  1.900E-10

      iter #   8 total cpu time :  4394.1 secs   av.it.:  11.6
      thresh= 1.378E-06 alpha_mix =  0.700 |ddv_scf|^2 =  1.336E-11

      iter #   9 total cpu time :  4458.6 secs   av.it.:  12.1
      thresh= 3.655E-07 alpha_mix =  0.700 |ddv_scf|^2 =  1.517E-11

      iter #  10 total cpu time :  4519.4 secs   av.it.:  11.2
      thresh= 3.895E-07 alpha_mix =  0.700 |ddv_scf|^2 =  1.126E-11

      iter #  11 total cpu time :  4579.6 secs   av.it.:  11.1
      thresh= 3.355E-07 alpha_mix =  0.700 |ddv_scf|^2 =  3.640E-12

      iter #  12 total cpu time :  4639.3 secs   av.it.:  11.0
      thresh= 1.908E-07 alpha_mix =  0.700 |ddv_scf|^2 =  1.390E-13

      iter #  13 total cpu time :  4705.7 secs   av.it.:  12.5
      thresh= 3.728E-08 alpha_mix =  0.700 |ddv_scf|^2 =  2.842E-13

      iter #  14 total cpu time :  4764.6 secs   av.it.:  10.8
      thresh= 5.331E-08 alpha_mix =  0.700 |ddv_scf|^2 =  3.692E-15

     End of self-consistent calculation

     Convergence has been achieved 


     Representation #   6 mode #   6

     Self-consistent Calculation

      iter #   1 total cpu time :  4815.2 secs   av.it.:   7.0
      thresh= 1.000E-02 alpha_mix =  0.700 |ddv_scf|^2 =  2.746E-05

      iter #   2 total cpu time :  4882.0 secs   av.it.:  12.5
      thresh= 5.241E-04 alpha_mix =  0.700 |ddv_scf|^2 =  5.033E-04

      iter #   3 total cpu time :  4938.5 secs   av.it.:  10.2
      thresh= 2.243E-03 alpha_mix =  0.700 |ddv_scf|^2 =  6.503E-06

      iter #   4 total cpu time :  4999.3 secs   av.it.:  11.2
      thresh= 2.550E-04 alpha_mix =  0.700 |ddv_scf|^2 =  1.350E-07

      iter #   5 total cpu time :  5063.2 secs   av.it.:  11.9
      thresh= 3.675E-05 alpha_mix =  0.700 |ddv_scf|^2 =  8.358E-09

      iter #   6 total cpu time :  5126.4 secs   av.it.:  11.8
      thresh= 9.142E-06 alpha_mix =  0.700 |ddv_scf|^2 =  2.430E-10

      iter #   7 total cpu time :  5191.2 secs   av.it.:  12.1
      thresh= 1.559E-06 alpha_mix =  0.700 |ddv_scf|^2 =  3.024E-11

      iter #   8 total cpu time :  5256.3 secs   av.it.:  12.3
      thresh= 5.499E-07 alpha_mix =  0.700 |ddv_scf|^2 =  2.084E-11

      iter #   9 total cpu time :  5319.0 secs   av.it.:  11.7
      thresh= 4.565E-07 alpha_mix =  0.700 |ddv_scf|^2 =  2.815E-11

      iter #  10 total cpu time :  5380.2 secs   av.it.:  11.2
      thresh= 5.306E-07 alpha_mix =  0.700 |ddv_scf|^2 =  1.300E-11

      iter #  11 total cpu time :  5440.6 secs   av.it.:  11.1
      thresh= 3.605E-07 alpha_mix =  0.700 |ddv_scf|^2 =  6.072E-13

      iter #  12 total cpu time :  5504.9 secs   av.it.:  12.0
      thresh= 7.792E-08 alpha_mix =  0.700 |ddv_scf|^2 =  2.905E-13

      iter #  13 total cpu time :  5565.3 secs   av.it.:  11.0
      thresh= 5.390E-08 alpha_mix =  0.700 |ddv_scf|^2 =  1.939E-13

      iter #  14 total cpu time :  5624.6 secs   av.it.:  10.8
      thresh= 4.403E-08 alpha_mix =  0.700 |ddv_scf|^2 =  7.873E-15

     End of self-consistent calculation

     Convergence has been achieved 


     Representation #   7 mode #   7

     Self-consistent Calculation

      iter #   1 total cpu time :  5671.1 secs   av.it.:   6.2
      thresh= 1.000E-02 alpha_mix =  0.700 |ddv_scf|^2 =  4.481E-07

      iter #   2 total cpu time :  5735.9 secs   av.it.:  12.2
      thresh= 6.694E-05 alpha_mix =  0.700 |ddv_scf|^2 =  3.430E-08

      iter #   3 total cpu time :  5800.7 secs   av.it.:  12.3
      thresh= 1.852E-05 alpha_mix =  0.700 |ddv_scf|^2 =  7.790E-10

      iter #   4 total cpu time :  5863.5 secs   av.it.:  11.7
      thresh= 2.791E-06 alpha_mix =  0.700 |ddv_scf|^2 =  5.157E-11

      iter #   5 total cpu time :  5926.7 secs   av.it.:  11.8
      thresh= 7.181E-07 alpha_mix =  0.700 |ddv_scf|^2 =  1.593E-13

      iter #   6 total cpu time :  5993.6 secs   av.it.:  12.7
      thresh= 3.991E-08 alpha_mix =  0.700 |ddv_scf|^2 =  7.685E-16

     End of self-consistent calculation

     Convergence has been achieved 


     Representation #   8 mode #   8

     Self-consistent Calculation

      iter #   1 total cpu time :  6040.2 secs   av.it.:   6.2
      thresh= 1.000E-02 alpha_mix =  0.700 |ddv_scf|^2 =  4.481E-07

      iter #   2 total cpu time :  6104.9 secs   av.it.:  12.2
      thresh= 6.694E-05 alpha_mix =  0.700 |ddv_scf|^2 =  3.430E-08

      iter #   3 total cpu time :  6169.8 secs   av.it.:  12.3
      thresh= 1.852E-05 alpha_mix =  0.700 |ddv_scf|^2 =  7.790E-10

      iter #   4 total cpu time :  6232.6 secs   av.it.:  11.7
      thresh= 2.791E-06 alpha_mix =  0.700 |ddv_scf|^2 =  5.157E-11

      iter #   5 total cpu time :  6295.8 secs   av.it.:  11.8
      thresh= 7.181E-07 alpha_mix =  0.700 |ddv_scf|^2 =  1.593E-13

      iter #   6 total cpu time :  6362.7 secs   av.it.:  12.7
      thresh= 3.991E-08 alpha_mix =  0.700 |ddv_scf|^2 =  7.685E-16

     End of self-consistent calculation

     Convergence has been achieved 


     Representation #   9 mode #   9

     Self-consistent Calculation

      iter #   1 total cpu time :  6421.2 secs   av.it.:   8.2
      thresh= 1.000E-02 alpha_mix =  0.700 |ddv_scf|^2 =  1.313E-05

      iter #   2 total cpu time :  6485.8 secs   av.it.:  12.2
      thresh= 3.623E-04 alpha_mix =  0.700 |ddv_scf|^2 =  1.644E-06

      iter #   3 total cpu time :  6549.6 secs   av.it.:  12.0
      thresh= 1.282E-04 alpha_mix =  0.700 |ddv_scf|^2 =  2.292E-09

      iter #   4 total cpu time :  6614.7 secs   av.it.:  12.3
      thresh= 4.788E-06 alpha_mix =  0.700 |ddv_scf|^2 =  1.574E-10

      iter #   5 total cpu time :  6678.3 secs   av.it.:  11.9
      thresh= 1.255E-06 alpha_mix =  0.700 |ddv_scf|^2 =  8.714E-13

      iter #   6 total cpu time :  6742.6 secs   av.it.:  12.0
      thresh= 9.335E-08 alpha_mix =  0.700 |ddv_scf|^2 =  2.290E-14

      iter #   7 total cpu time :  6807.3 secs   av.it.:  12.2
      thresh= 1.513E-08 alpha_mix =  0.700 |ddv_scf|^2 =  3.037E-16

     End of self-consistent calculation

     Convergence has been achieved 
 
     Number of q in the star =   12
     List of q in the star:
          1   0.000000000   0.384900179   0.311376641
          2   0.333333333  -0.192450090   0.311376641
          3   0.000000000  -0.384900179   0.311376641
          4   0.333333333   0.192450090   0.311376641
          5  -0.333333333   0.192450090   0.311376641
          6   0.000000000   0.384900179  -0.311376641
          7   0.000000000  -0.384900179  -0.311376641
          8   0.333333333  -0.192450090  -0.311376641
          9  -0.333333333  -0.192450090  -0.311376641
         10  -0.333333333   0.192450090  -0.311376641
         11   0.333333333   0.192450090  -0.311376641
         12  -0.333333333  -0.192450090   0.311376641

     Diagonalizing the dynamical matrix

     q = (    0.000000000   0.384900179   0.311376641 ) 

 **************************************************************************
     freq (    1) =       5.208690 [THz] =     173.743191 [cm-1]
     freq (    2) =       5.524282 [THz] =     184.270210 [cm-1]
     freq (    3) =       6.762372 [THz] =     225.568435 [cm-1]
     freq (    4) =      13.983816 [THz] =     466.449886 [cm-1]
     freq (    5) =      15.138522 [THz] =     504.966751 [cm-1]
     freq (    6) =      16.452506 [THz] =     548.796544 [cm-1]
     freq (    7) =      17.832024 [THz] =     594.812309 [cm-1]
     freq (    8) =      22.394575 [THz] =     747.002620 [cm-1]
     freq (    9) =      22.985506 [THz] =     766.713946 [cm-1]
 **************************************************************************

     Mode symmetry, C_s (m)     point group:

     freq (   1-   1) =        173.7  [cm-1]   --> A'                 
     freq (   2-   2) =        184.3  [cm-1]   --> A''                
     freq (   3-   3) =        225.6  [cm-1]   --> A'                 
     freq (   4-   4) =        466.4  [cm-1]   --> A''                
     freq (   5-   5) =        505.0  [cm-1]   --> A'                 
     freq (   6-   6) =        548.8  [cm-1]   --> A'                 
     freq (   7-   7) =        594.8  [cm-1]   --> A'                 
     freq (   8-   8) =        747.0  [cm-1]   --> A''                
     freq (   9-   9) =        766.7  [cm-1]   --> A'                 
 
     init_run     :      0.14s CPU      0.15s WALL (       1 calls)
     electrons    :    416.51s CPU    427.86s WALL (       1 calls)

     Called by init_run:
     wfcinit      :      0.00s CPU      0.00s WALL (       1 calls)
     potinit      :      0.01s CPU      0.01s WALL (       1 calls)
     hinit0       :      0.03s CPU      0.03s WALL (       1 calls)

     Called by electrons:
     c_bands      :    416.28s CPU    427.63s WALL (       1 calls)
     v_of_rho     :      0.02s CPU      0.02s WALL (       2 calls)

     Called by c_bands:
     init_us_2    :     36.48s CPU     38.45s WALL (  384750 calls)
     init_us_2:cp :     35.35s CPU     37.41s WALL (  384750 calls)
     cegterg      :    393.89s CPU    404.49s WALL (    8400 calls)

     Called by *egterg:
     cdiaghg      :    156.60s CPU    160.24s WALL (  135309 calls)
     h_psi        :   4593.75s CPU   4834.10s WALL ( 6264232 calls)
     g_psi        :      0.98s CPU      1.01s WALL (  129153 calls)

     Called by h_psi:
     h_psi:calbec :    275.06s CPU    289.49s WALL ( 6264232 calls)
     vloc_psi     :   4014.58s CPU   4224.44s WALL ( 6264232 calls)
     add_vuspsi   :    238.09s CPU    252.17s WALL ( 6264232 calls)

     General routines
     calbec       :    490.44s CPU    516.64s WALL (12526343 calls)
     fft          :      0.65s CPU      0.70s WALL (    1365 calls)
     ffts         :      2.70s CPU      2.81s WALL (   27991 calls)
     fftw         :   4246.38s CPU   4474.62s WALL (91147784 calls)
     interpolate  :      0.14s CPU      0.15s WALL (     208 calls)
 
     Parallel routines
 
     PHONON       :      1h47m CPU      1h53m WALL

     INITIALIZATION: 
     phq_setup    :      0.02s CPU      0.03s WALL (       1 calls)
     phq_init     :     14.60s CPU     14.65s WALL (       1 calls)
 
     phq_init     :     14.60s CPU     14.65s WALL (       1 calls)
     init_vloc    :      0.02s CPU      0.02s WALL (       2 calls)
     init_us_1    :      0.02s CPU      0.03s WALL (       2 calls)
     init_us_2    :     36.48s CPU     38.45s WALL (  384750 calls)
 
     DYNAMICAL MATRIX:
     dynmat0      :     12.92s CPU     12.96s WALL (       1 calls)
     phqscf       :   6037.72s CPU   6365.93s WALL (       1 calls)
     dynmatrix    :      0.00s CPU      0.04s WALL (       1 calls)
 
     phqscf       :   6037.72s CPU   6365.93s WALL (       1 calls)
     solve_linter :   6019.71s CPU   6347.63s WALL (       9 calls)
     drhodv       :     18.01s CPU     18.27s WALL (       9 calls)
 
     dynmat0      :     12.92s CPU     12.96s WALL (       1 calls)
     dynmat_us    :     12.91s CPU     12.95s WALL (       1 calls)
     d2ionq       :      0.00s CPU      0.00s WALL (       1 calls)
 
     dynmat_us    :     12.91s CPU     12.95s WALL (       1 calls)
 
     phqscf       :   6037.72s CPU   6365.93s WALL (       1 calls)
     solve_linter :   6019.71s CPU   6347.63s WALL (       9 calls)
 
     solve_linter :   6019.71s CPU   6347.63s WALL (       9 calls)
     dvqpsi_us    :     95.98s CPU     99.30s WALL (   27702 calls)
     sth_kernel   :   5917.30s CPU   6241.58s WALL (     103 calls)
     apply_dpot_b :    333.86s CPU    354.44s WALL (  289332 calls)
     ortho        :     34.13s CPU     36.17s WALL (  317034 calls)
     cgsolve      :   5114.98s CPU   5388.19s WALL (  317034 calls)
     incdrhoscf   :    347.91s CPU    370.94s WALL (  317034 calls)
     dv_of_drho   :      1.12s CPU      1.16s WALL (     103 calls)
     mix_pot      :      0.24s CPU      0.35s WALL (     103 calls)
     psymdvscf    :      2.01s CPU      2.08s WALL (     103 calls)
 
     dvqpsi_us    :     95.98s CPU     99.30s WALL (   27702 calls)
     dvqpsi_us_on :     33.93s CPU     35.00s WALL (   27702 calls)
 
     cgsolve      :   5114.98s CPU   5388.19s WALL (  317034 calls)
     ch_psi       :   4957.62s CPU   5220.86s WALL ( 6120523 calls)
 
     ch_psi       :   4957.62s CPU   5220.86s WALL ( 6120523 calls)
     h_psi        :   4593.75s CPU   4834.10s WALL ( 6264232 calls)
     last         :    469.84s CPU    495.05s WALL ( 6120523 calls)
 
     h_psi        :   4593.75s CPU   4834.10s WALL ( 6264232 calls)
     add_vuspsi   :    238.09s CPU    252.17s WALL ( 6264232 calls)
 
     incdrhoscf   :    347.91s CPU    370.94s WALL (  317034 calls)
 
 
      General routines
     calbec       :    490.44s CPU    516.64s WALL (12526343 calls)
     fft          :      0.65s CPU      0.70s WALL (    1365 calls)
     ffts         :      2.70s CPU      2.81s WALL (   27991 calls)
     fftw         :   4246.38s CPU   4474.62s WALL (91147784 calls)
 
 
     PHONON       :      1h47m CPU      1h53m WALL

 
   This run was terminated on:   3:51: 8  31May2022            

=------------------------------------------------------------------------------=
   JOB DONE.
=------------------------------------------------------------------------------=
