
     Program PHONON v.7.0 starts on 31May2022 at  0:57:43 

     This program is part of the open-source Quantum ESPRESSO suite
     for quantum simulation of materials; please cite
         "P. Giannozzi et al., J. Phys.:Condens. Matter 21 395502 (2009);
         "P. Giannozzi et al., J. Phys.:Condens. Matter 29 465901 (2017);
         "P. Giannozzi et al., J. Chem. Phys. 152 154105 (2020);
          URL http://www.quantum-espresso.org", 
     in publications or presentations arising from this work. More details at
     http://www.quantum-espresso.org/quote

     Parallel version (MPI), running on     8 processors

     MPI processes distributed on     1 nodes
     R & G space division:  proc/nbgrp/npool/nimage =       8
     5182 MiB available memory on the printing compute node when the environment starts
 
     Reading input from mob2_fonon_02.in

     Reading xml data from directory:

     ./tmp/mob2.save/

     IMPORTANT: XC functional enforced from input :
     Exchange-correlation= PBE
                           (   1   4   3   4   0   0   0)
     Any further DFT definition will be discarded
     Please, verify this is what you really want

 
     Parallelization info
     --------------------
     sticks:   dense  smooth     PW     G-vecs:    dense   smooth      PW
     Min         166      47     15                 5258      799     147
     Max         167      48     16                 5263      802     150
     Sum        1333     379    121                42083     6403    1179
 
     Using Slab Decomposition
 
     Reading collected, re-writing distributed wavefunctions


     Dynamical matrices for ( 3, 3, 3)  uniform grid of q-points
     (   6 q-points):
       N         xq(1)         xq(2)         xq(3) 
       1   0.000000000   0.000000000   0.000000000
       2   0.000000000   0.000000000   0.311376641
       3   0.000000000   0.384900179   0.000000000
       4   0.000000000   0.384900179   0.311376641
       5   0.333333333   0.577350269   0.000000000
       6   0.333333333   0.577350269   0.311376641

     Calculation of q =    0.0000000   0.0000000   0.3113766

     Subspace diagonalization in iterative solution of the eigenvalue problem:
     a serial algorithm will be used

 
     Parallelization info
     --------------------
     sticks:   dense  smooth     PW     G-vecs:    dense   smooth      PW
     Min         166      47     15                 5258      799     157
     Max         167      48     16                 5263      802     162
     Sum        1333     379    121                42083     6403    1263
 
     Using Slab Decomposition
 

     Title: 
     Phonon calc for qp02                                                       


     bravais-lattice index     =            4
     lattice parameter (alat)  =       5.8733  a.u.
     unit-cell volume          =     187.8355 (a.u.)^3
     number of atoms/cell      =            3
     number of atomic types    =            2
     number of electrons       =        19.00
     number of Kohn-Sham states=           20
     kinetic-energy cutoff     =      40.0000  Ry
     charge density cutoff     =     560.0000  Ry
     Exchange-correlation= PBE
                           (   1   4   3   4   0   0   0)

     celldm(1)=   5.873335  celldm(2)=   0.000000  celldm(3)=   1.070515
     celldm(4)=   0.000000  celldm(5)=   0.000000  celldm(6)=   0.000000

     crystal axes: (cart. coord. in units of alat)
               a(1) = (   1.000000   0.000000   0.000000 )  
               a(2) = (  -0.500000   0.866025   0.000000 )  
               a(3) = (   0.000000   0.000000   1.070515 )  

     reciprocal axes: (cart. coord. in units 2 pi/alat)
               b(1) = (  1.000000  0.577350  0.000000 )  
               b(2) = (  0.000000  1.154701  0.000000 )  
               b(3) = (  0.000000  0.000000  0.934130 )  


     PseudoPot. # 1 for Xx read from file:
     /home/marcocarmonaga/Apps/qe-7.0/pseudo/Nb1.00Mo0.00.upf
     MD5 check sum: e4b562b21cfca1bf7e2ab47e57cae993
     Pseudo is Norm-conserving, Zval = 13.0
     Generated using virtual.x code
     Using radial grid of  602 points, 12 beta functions with: 
                l(1) =   0
                l(2) =   0
                l(3) =   1
                l(4) =   1
                l(5) =   2
                l(6) =   2
                l(7) =   0
                l(8) =   0
                l(9) =   1
               l(10) =   1
               l(11) =   2
               l(12) =   2

     PseudoPot. # 2 for B  read from file:
     /home/marcocarmonaga/Apps/qe-7.0/pseudo/B_ONCV_PBE-1.2.upf
     MD5 check sum: eb3cbeacc2d324d57d903df00f564d27
     Pseudo is Norm-conserving, Zval =  3.0
     Generated using ONCVPSP code by D. R. Hamann
     Using radial grid of  602 points,  4 beta functions with: 
                l(1) =   0
                l(2) =   0
                l(3) =   1
                l(4) =   1

     atomic species   valence    mass     pseudopotential
        Mo            13.00    92.90600     Xx( 1.00)
        B              3.00    10.81000     B ( 1.00)

     24 Sym. Ops., with inversion, found



   Cartesian axes

     site n.     atom                  positions (alat units)
         1           Mo  tau(   1) = (   0.0000000   0.0000000   0.0000000  )
         2           B   tau(   2) = (   0.5000000   0.2886751   0.5352574  )
         3           B   tau(   3) = (   0.0000000   0.5773503   0.5352574  )

     number of k points=  1332  Gaussian smearing, width (Ry)=  0.0150

     Number of k-points >= 100: set verbosity='high' to print them.

     Dense  grid:    42083 G-vectors     FFT dimensions: (  45,  45,  48)

     Smooth grid:     6403 G-vectors     FFT dimensions: (  24,  24,  25)

     Estimated max dynamical RAM per process >      57.33 MB

     Estimated total dynamical RAM >     458.61 MB

     The potential is recalculated from file :
     ./tmp/_ph0/mob2.save/charge-density

     Starting wfcs are    0 atomic +   20 random wfcs

     Band Structure Calculation
     Davidson diagonalization with overlap

     ethr =  5.26E-11,  avg # of iterations = 20.7

     total cpu time spent up to now is       92.0 secs

     End of band structure calculation

     Number of k-points >= 100: set verbosity='high' to print the bands.

     the Fermi energy is    18.4736 ev

     Phonon calc for qp02                                                       

     bravais-lattice index     =            4
     lattice parameter (alat)  =       5.8733  a.u.
     unit-cell volume          =     187.8355 (a.u.)^3
     number of atoms/cell      =            3
     number of atomic types    =            2
     kinetic-energy cut-off    =      40.0000  Ry
     charge density cut-off    =     560.0000  Ry
     convergence threshold     =      1.0E-14
     beta                      =       0.7000
     number of iterations used =            4
     Exchange-correlation= PBE
                           (   1   4   3   4   0   0   0)


     celldm(1)=    5.87334  celldm(2)=    0.00000  celldm(3)=    1.07051
     celldm(4)=    0.00000  celldm(5)=    0.00000  celldm(6)=    0.00000

     crystal axes: (cart. coord. in units of alat)
               a(1) = (  1.0000  0.0000  0.0000 )  
               a(2) = ( -0.5000  0.8660  0.0000 )  
               a(3) = (  0.0000  0.0000  1.0705 )  

     reciprocal axes: (cart. coord. in units 2 pi/alat)
               b(1) = (  1.0000  0.5774  0.0000 )  
               b(2) = (  0.0000  1.1547  0.0000 )  
               b(3) = (  0.0000  0.0000  0.9341 )  


     Atoms inside the unit cell: 

     Cartesian axes

     site n.  atom      mass           positions (alat units)
        1     Mo  92.9060   tau(    1) = (    0.00000    0.00000    0.00000  )
        2     B   10.8100   tau(    2) = (    0.50000    0.28868    0.53526  )
        3     B   10.8100   tau(    3) = (    0.00000    0.57735    0.53526  )

     Computing dynamical matrix for 
                    q = (   0.0000000   0.0000000   0.3113766 )
 
     12 Sym.Ops. (no q -> -q+G )


     G cutoff =  489.3255  (   5263 G-vectors)     FFT grid: ( 45, 45, 48)
     G cutoff =  139.8073  (    802 G-vectors)  smooth grid: ( 24, 24, 25)

     number of k points=  1332  Gaussian smearing, width (Ry)=  0.0150

     PseudoPot. # 1 for Xx read from file:
     /home/marcocarmonaga/Apps/qe-7.0/pseudo/Nb1.00Mo0.00.upf
     MD5 check sum: e4b562b21cfca1bf7e2ab47e57cae993
     Pseudo is Norm-conserving, Zval = 13.0
     Generated using virtual.x code
     Using radial grid of  602 points, 12 beta functions with: 
                l(1) =   0
                l(2) =   0
                l(3) =   1
                l(4) =   1
                l(5) =   2
                l(6) =   2
                l(7) =   0
                l(8) =   0
                l(9) =   1
               l(10) =   1
               l(11) =   2
               l(12) =   2

     PseudoPot. # 2 for B  read from file:
     /home/marcocarmonaga/Apps/qe-7.0/pseudo/B_ONCV_PBE-1.2.upf
     MD5 check sum: eb3cbeacc2d324d57d903df00f564d27
     Pseudo is Norm-conserving, Zval =  3.0
     Generated using ONCVPSP code by D. R. Hamann
     Using radial grid of  602 points,  4 beta functions with: 
                l(1) =   0
                l(2) =   0
                l(3) =   1
                l(4) =   1

     Mode symmetry, C_6v (6mm)  point group:


     Atomic displacements:
     There are    6 irreducible representations

     Representation     1      1 modes -  To be done

     Representation     2      1 modes -  To be done

     Representation     3      1 modes -  To be done

     Representation     4      2 modes -  To be done

     Representation     5      2 modes -  To be done

     Representation     6      2 modes -  To be done



     Alpha used in Ewald sum =   2.8000
     PHONON       :   1m33.26s CPU   1m35.84s WALL



     Representation #   1 mode #   1

     Self-consistent Calculation

      iter #   1 total cpu time :   109.2 secs   av.it.:   9.2
      thresh= 1.000E-02 alpha_mix =  0.700 |ddv_scf|^2 =  1.357E-02

      iter #   2 total cpu time :   122.7 secs   av.it.:  11.4
      thresh= 1.000E-02 alpha_mix =  0.700 |ddv_scf|^2 =  1.543E+00

      iter #   3 total cpu time :   136.1 secs   av.it.:  11.3
      thresh= 1.000E-02 alpha_mix =  0.700 |ddv_scf|^2 =  3.146E-03

      iter #   4 total cpu time :   148.3 secs   av.it.:  10.1
      thresh= 5.609E-03 alpha_mix =  0.700 |ddv_scf|^2 =  5.088E-04

      iter #   5 total cpu time :   160.0 secs   av.it.:   9.6
      thresh= 2.256E-03 alpha_mix =  0.700 |ddv_scf|^2 =  4.739E-06

      iter #   6 total cpu time :   171.6 secs   av.it.:   9.5
      thresh= 2.177E-04 alpha_mix =  0.700 |ddv_scf|^2 =  9.785E-08

      iter #   7 total cpu time :   182.9 secs   av.it.:   9.1
      thresh= 3.128E-05 alpha_mix =  0.700 |ddv_scf|^2 =  1.235E-09

      iter #   8 total cpu time :   194.3 secs   av.it.:   9.4
      thresh= 3.514E-06 alpha_mix =  0.700 |ddv_scf|^2 =  1.585E-12

      iter #   9 total cpu time :   208.3 secs   av.it.:  11.8
      thresh= 1.259E-07 alpha_mix =  0.700 |ddv_scf|^2 =  8.422E-11

      iter #  10 total cpu time :   218.7 secs   av.it.:   8.2
      thresh= 9.177E-07 alpha_mix =  0.700 |ddv_scf|^2 =  1.014E-12

      iter #  11 total cpu time :   232.0 secs   av.it.:  10.5
      thresh= 1.007E-07 alpha_mix =  0.700 |ddv_scf|^2 =  2.187E-13

      iter #  12 total cpu time :   244.4 secs   av.it.:  10.4
      thresh= 4.676E-08 alpha_mix =  0.700 |ddv_scf|^2 =  2.375E-14

      iter #  13 total cpu time :   256.2 secs   av.it.:   9.7
      thresh= 1.541E-08 alpha_mix =  0.700 |ddv_scf|^2 =  1.877E-16

     End of self-consistent calculation

     Convergence has been achieved 


     Representation #   2 mode #   2

     Self-consistent Calculation

      iter #   1 total cpu time :   267.4 secs   av.it.:   7.1
      thresh= 1.000E-02 alpha_mix =  0.700 |ddv_scf|^2 =  1.992E-03

      iter #   2 total cpu time :   280.7 secs   av.it.:  11.2
      thresh= 4.463E-03 alpha_mix =  0.700 |ddv_scf|^2 =  2.572E-01

      iter #   3 total cpu time :   293.0 secs   av.it.:  10.0
      thresh= 1.000E-02 alpha_mix =  0.700 |ddv_scf|^2 =  2.319E-05

      iter #   4 total cpu time :   306.5 secs   av.it.:  11.4
      thresh= 4.815E-04 alpha_mix =  0.700 |ddv_scf|^2 =  1.095E-04

      iter #   5 total cpu time :   318.4 secs   av.it.:   9.8
      thresh= 1.047E-03 alpha_mix =  0.700 |ddv_scf|^2 =  1.195E-06

      iter #   6 total cpu time :   329.7 secs   av.it.:   9.2
      thresh= 1.093E-04 alpha_mix =  0.700 |ddv_scf|^2 =  1.767E-08

      iter #   7 total cpu time :   341.1 secs   av.it.:   9.2
      thresh= 1.329E-05 alpha_mix =  0.700 |ddv_scf|^2 =  4.335E-12

      iter #   8 total cpu time :   354.3 secs   av.it.:  11.1
      thresh= 2.082E-07 alpha_mix =  0.700 |ddv_scf|^2 =  2.717E-12

      iter #   9 total cpu time :   366.6 secs   av.it.:  10.2
      thresh= 1.648E-07 alpha_mix =  0.700 |ddv_scf|^2 =  2.888E-11

      iter #  10 total cpu time :   377.4 secs   av.it.:   8.6
      thresh= 5.374E-07 alpha_mix =  0.700 |ddv_scf|^2 =  2.957E-13

      iter #  11 total cpu time :   389.7 secs   av.it.:  10.2
      thresh= 5.438E-08 alpha_mix =  0.700 |ddv_scf|^2 =  2.668E-14

      iter #  12 total cpu time :   401.8 secs   av.it.:  10.0
      thresh= 1.633E-08 alpha_mix =  0.700 |ddv_scf|^2 =  1.075E-16

     End of self-consistent calculation

     Convergence has been achieved 


     Representation #   3 mode #   3

     Self-consistent Calculation

      iter #   1 total cpu time :   410.9 secs   av.it.:   4.9
      thresh= 1.000E-02 alpha_mix =  0.700 |ddv_scf|^2 =  9.811E-08

      iter #   2 total cpu time :   423.9 secs   av.it.:  11.0
      thresh= 3.132E-05 alpha_mix =  0.700 |ddv_scf|^2 =  3.381E-09

      iter #   3 total cpu time :   436.3 secs   av.it.:  10.3
      thresh= 5.815E-06 alpha_mix =  0.700 |ddv_scf|^2 =  3.798E-10

      iter #   4 total cpu time :   449.0 secs   av.it.:  10.6
      thresh= 1.949E-06 alpha_mix =  0.700 |ddv_scf|^2 =  4.726E-11

      iter #   5 total cpu time :   461.7 secs   av.it.:  10.6
      thresh= 6.874E-07 alpha_mix =  0.700 |ddv_scf|^2 =  8.244E-15

     End of self-consistent calculation

     Convergence has been achieved 


     Representation #   4 modes #   4   5

     Self-consistent Calculation

      iter #   1 total cpu time :   480.2 secs   av.it.:   5.4
      thresh= 1.000E-02 alpha_mix =  0.700 |ddv_scf|^2 =  3.171E-08

      iter #   2 total cpu time :   509.3 secs   av.it.:  12.6
      thresh= 1.781E-05 alpha_mix =  0.700 |ddv_scf|^2 =  1.180E-09

      iter #   3 total cpu time :   538.3 secs   av.it.:  12.7
      thresh= 3.435E-06 alpha_mix =  0.700 |ddv_scf|^2 =  1.068E-10

      iter #   4 total cpu time :   566.0 secs   av.it.:  12.0
      thresh= 1.034E-06 alpha_mix =  0.700 |ddv_scf|^2 =  3.063E-12

      iter #   5 total cpu time :   594.7 secs   av.it.:  12.5
      thresh= 1.750E-07 alpha_mix =  0.700 |ddv_scf|^2 =  5.557E-15

     End of self-consistent calculation

     Convergence has been achieved 


     Representation #   5 modes #   6   7

     Self-consistent Calculation

      iter #   1 total cpu time :   619.3 secs   av.it.:   7.9
      thresh= 1.000E-02 alpha_mix =  0.700 |ddv_scf|^2 =  2.361E-06

      iter #   2 total cpu time :   648.2 secs   av.it.:  12.7
      thresh= 1.536E-04 alpha_mix =  0.700 |ddv_scf|^2 =  1.810E-07

      iter #   3 total cpu time :   676.9 secs   av.it.:  12.5
      thresh= 4.254E-05 alpha_mix =  0.700 |ddv_scf|^2 =  3.596E-10

      iter #   4 total cpu time :   705.6 secs   av.it.:  12.5
      thresh= 1.896E-06 alpha_mix =  0.700 |ddv_scf|^2 =  5.202E-12

      iter #   5 total cpu time :   734.3 secs   av.it.:  12.5
      thresh= 2.281E-07 alpha_mix =  0.700 |ddv_scf|^2 =  1.110E-13

      iter #   6 total cpu time :   763.7 secs   av.it.:  12.9
      thresh= 3.331E-08 alpha_mix =  0.700 |ddv_scf|^2 =  9.406E-16

     End of self-consistent calculation

     Convergence has been achieved 


     Representation #   6 modes #   8   9

     Self-consistent Calculation

      iter #   1 total cpu time :   783.2 secs   av.it.:   5.8
      thresh= 1.000E-02 alpha_mix =  0.700 |ddv_scf|^2 =  1.010E-07

      iter #   2 total cpu time :   811.9 secs   av.it.:  12.4
      thresh= 3.178E-05 alpha_mix =  0.700 |ddv_scf|^2 =  2.050E-09

      iter #   3 total cpu time :   840.4 secs   av.it.:  12.3
      thresh= 4.528E-06 alpha_mix =  0.700 |ddv_scf|^2 =  1.025E-10

      iter #   4 total cpu time :   866.0 secs   av.it.:  10.9
      thresh= 1.013E-06 alpha_mix =  0.700 |ddv_scf|^2 =  2.489E-13

      iter #   5 total cpu time :   894.8 secs   av.it.:  12.5
      thresh= 4.989E-08 alpha_mix =  0.700 |ddv_scf|^2 =  6.638E-16

     End of self-consistent calculation

     Convergence has been achieved 
 
     Number of q in the star =    2
     List of q in the star:
          1   0.000000000   0.000000000   0.311376641
          2   0.000000000   0.000000000  -0.311376641

     Diagonalizing the dynamical matrix

     q = (    0.000000000   0.000000000   0.311376641 ) 

 **************************************************************************
     freq (    1) =       4.302707 [THz] =     143.522842 [cm-1]
     freq (    2) =       4.302707 [THz] =     143.522842 [cm-1]
     freq (    3) =       5.291184 [THz] =     176.494893 [cm-1]
     freq (    4) =      12.319389 [THz] =     410.930574 [cm-1]
     freq (    5) =      12.319389 [THz] =     410.930574 [cm-1]
     freq (    6) =      15.749973 [THz] =     525.362536 [cm-1]
     freq (    7) =      15.839232 [THz] =     528.339901 [cm-1]
     freq (    8) =      22.521714 [THz] =     751.243513 [cm-1]
     freq (    9) =      22.521714 [THz] =     751.243513 [cm-1]
 **************************************************************************

     Mode symmetry, C_6v (6mm)  point group:

     freq (   1-   2) =        143.5  [cm-1]   --> E_1                
     freq (   3-   3) =        176.5  [cm-1]   --> A_1                
     freq (   4-   5) =        410.9  [cm-1]   --> E_1                
     freq (   6-   6) =        525.4  [cm-1]   --> A_1                
     freq (   7-   7) =        528.3  [cm-1]   --> B_1                
     freq (   8-   9) =        751.2  [cm-1]   --> E_2                
 
     init_run     :      0.09s CPU      0.10s WALL (       1 calls)
     electrons    :     89.49s CPU     91.94s WALL (       1 calls)

     Called by init_run:
     wfcinit      :      0.00s CPU      0.00s WALL (       1 calls)
     potinit      :      0.01s CPU      0.01s WALL (       1 calls)
     hinit0       :      0.02s CPU      0.03s WALL (       1 calls)

     Called by electrons:
     c_bands      :     89.44s CPU     91.89s WALL (       1 calls)
     v_of_rho     :      0.02s CPU      0.02s WALL (       2 calls)

     Called by c_bands:
     init_us_2    :      3.98s CPU      4.19s WALL (   41292 calls)
     init_us_2:cp :      3.86s CPU      4.08s WALL (   41292 calls)
     cegterg      :     84.46s CPU     86.73s WALL (    1791 calls)

     Called by *egterg:
     cdiaghg      :     33.62s CPU     34.39s WALL (   28946 calls)
     h_psi        :    586.18s CPU    619.49s WALL (  770878 calls)
     g_psi        :      0.21s CPU      0.22s WALL (   27614 calls)

     Called by h_psi:
     h_psi:calbec :     34.07s CPU     36.00s WALL (  770878 calls)
     vloc_psi     :    512.87s CPU    542.04s WALL (  770878 calls)
     add_vuspsi   :     31.25s CPU     33.16s WALL (  770878 calls)

     General routines
     calbec       :     59.95s CPU     63.41s WALL ( 1541655 calls)
     fft          :      0.35s CPU      0.37s WALL (     832 calls)
     ffts         :      0.43s CPU      0.45s WALL (    6174 calls)
     fftw         :    547.31s CPU    579.32s WALL (11691448 calls)
     interpolate  :      0.08s CPU      0.08s WALL (     126 calls)
 
     Parallel routines
 
     PHONON       :  14m 8.53s CPU  14m55.59s WALL

     INITIALIZATION: 
     phq_setup    :      0.03s CPU      0.03s WALL (       1 calls)
     phq_init     :      3.18s CPU      3.20s WALL (       1 calls)
 
     phq_init     :      3.18s CPU      3.20s WALL (       1 calls)
     init_vloc    :      0.02s CPU      0.02s WALL (       2 calls)
     init_us_1    :      0.01s CPU      0.03s WALL (       2 calls)
     init_us_2    :      3.98s CPU      4.19s WALL (   41292 calls)
 
     DYNAMICAL MATRIX:
     dynmat0      :      2.79s CPU      2.81s WALL (       1 calls)
     phqscf       :    755.28s CPU    799.71s WALL (       1 calls)
     dynmatrix    :      0.00s CPU      0.00s WALL (       1 calls)
 
     phqscf       :    755.28s CPU    799.71s WALL (       1 calls)
     solve_linter :    751.95s CPU    796.31s WALL (       6 calls)
     drhodv       :      3.32s CPU      3.40s WALL (       6 calls)
 
     dynmat0      :      2.79s CPU      2.81s WALL (       1 calls)
     dynmat_us    :      2.79s CPU      2.81s WALL (       1 calls)
     d2ionq       :      0.00s CPU      0.00s WALL (       1 calls)
 
     dynmat_us    :      2.79s CPU      2.81s WALL (       1 calls)
 
     phqscf       :    755.28s CPU    799.71s WALL (       1 calls)
     solve_linter :    751.95s CPU    796.31s WALL (       6 calls)
 
     solve_linter :    751.95s CPU    796.31s WALL (       6 calls)
     dvqpsi_us    :     21.18s CPU     21.97s WALL (    5994 calls)
     sth_kernel   :    724.95s CPU    768.48s WALL (      46 calls)
     apply_dpot_b :     41.00s CPU     43.71s WALL (   35298 calls)
     ortho        :      4.29s CPU      4.57s WALL (   41292 calls)
     cgsolve      :    625.28s CPU    662.13s WALL (   41292 calls)
     incdrhoscf   :     45.47s CPU     48.58s WALL (   41292 calls)
     dv_of_drho   :      0.64s CPU      0.64s WALL (      62 calls)
     mix_pot      :      0.13s CPU      0.13s WALL (      46 calls)
     psymdvscf    :      4.48s CPU      4.49s WALL (      46 calls)
 
     dvqpsi_us    :     21.18s CPU     21.97s WALL (    5994 calls)
     dvqpsi_us_on :      7.73s CPU      8.01s WALL (    5994 calls)
 
     cgsolve      :    625.28s CPU    662.13s WALL (   41292 calls)
     ch_psi       :    607.20s CPU    642.83s WALL (  740141 calls)
 
     ch_psi       :    607.20s CPU    642.83s WALL (  740141 calls)
     h_psi        :    586.18s CPU    619.49s WALL (  770878 calls)
     last         :     53.42s CPU     56.58s WALL (  740141 calls)
 
     h_psi        :    586.18s CPU    619.49s WALL (  770878 calls)
     add_vuspsi   :     31.25s CPU     33.16s WALL (  770878 calls)
 
     incdrhoscf   :     45.47s CPU     48.58s WALL (   41292 calls)
 
 
      General routines
     calbec       :     59.95s CPU     63.41s WALL ( 1541655 calls)
     fft          :      0.35s CPU      0.37s WALL (     832 calls)
     ffts         :      0.43s CPU      0.45s WALL (    6174 calls)
     fftw         :    547.31s CPU    579.32s WALL (11691448 calls)
 
 
     PHONON       :  14m 8.53s CPU  14m55.59s WALL

 
   This run was terminated on:   1:12:38  31May2022            

=------------------------------------------------------------------------------=
   JOB DONE.
=------------------------------------------------------------------------------=
