
     Program PHONON v.7.0 starts on 31May2022 at  8: 8:54 

     This program is part of the open-source Quantum ESPRESSO suite
     for quantum simulation of materials; please cite
         "P. Giannozzi et al., J. Phys.:Condens. Matter 21 395502 (2009);
         "P. Giannozzi et al., J. Phys.:Condens. Matter 29 465901 (2017);
         "P. Giannozzi et al., J. Chem. Phys. 152 154105 (2020);
          URL http://www.quantum-espresso.org", 
     in publications or presentations arising from this work. More details at
     http://www.quantum-espresso.org/quote

     Parallel version (MPI), running on     8 processors

     MPI processes distributed on     1 nodes
     R & G space division:  proc/nbgrp/npool/nimage =       8
     5628 MiB available memory on the printing compute node when the environment starts
 
     Reading input from mob2_fonon_06.in

     Reading xml data from directory:

     ./tmp/mob2.save/

     IMPORTANT: XC functional enforced from input :
     Exchange-correlation= PBE
                           (   1   4   3   4   0   0   0)
     Any further DFT definition will be discarded
     Please, verify this is what you really want

 
     Parallelization info
     --------------------
     sticks:   dense  smooth     PW     G-vecs:    dense   smooth      PW
     Min         185      52     15                 6053      930     163
     Max         186      53     16                 6056      935     166
     Sum        1483     421    127                48439     7467    1317
 
     Using Slab Decomposition
 
     Reading collected, re-writing distributed wavefunctions


     Dynamical matrices for ( 3, 3, 3)  uniform grid of q-points
     (   6 q-points):
       N         xq(1)         xq(2)         xq(3) 
       1   0.000000000   0.000000000   0.000000000
       2   0.000000000   0.000000000   0.311376641
       3   0.000000000   0.384900179   0.000000000
       4   0.000000000   0.384900179   0.311376641
       5   0.333333333   0.577350269   0.000000000
       6   0.333333333   0.577350269   0.311376641

     Calculation of q =    0.3333333   0.5773503   0.3113766

     Subspace diagonalization in iterative solution of the eigenvalue problem:
     a serial algorithm will be used

 
     Parallelization info
     --------------------
     sticks:   dense  smooth     PW     G-vecs:    dense   smooth      PW
     Min         185      52     20                 6053      930     224
     Max         186      53     21                 6056      935     227
     Sum        1483     421    163                48439     7467    1799
 
     Using Slab Decomposition
 

     Title: 
     Phonon calc for qp06                                                       


     bravais-lattice index     =            4
     lattice parameter (alat)  =       5.8733  a.u.
     unit-cell volume          =     187.8355 (a.u.)^3
     number of atoms/cell      =            3
     number of atomic types    =            2
     number of electrons       =        19.00
     number of Kohn-Sham states=           20
     kinetic-energy cutoff     =      44.0000  Ry
     charge density cutoff     =     616.0000  Ry
     Exchange-correlation= PBE
                           (   1   4   3   4   0   0   0)

     celldm(1)=   5.873335  celldm(2)=   0.000000  celldm(3)=   1.070515
     celldm(4)=   0.000000  celldm(5)=   0.000000  celldm(6)=   0.000000

     crystal axes: (cart. coord. in units of alat)
               a(1) = (   1.000000   0.000000   0.000000 )  
               a(2) = (  -0.500000   0.866025   0.000000 )  
               a(3) = (   0.000000   0.000000   1.070515 )  

     reciprocal axes: (cart. coord. in units 2 pi/alat)
               b(1) = (  1.000000  0.577350  0.000000 )  
               b(2) = (  0.000000  1.154701  0.000000 )  
               b(3) = (  0.000000  0.000000  0.934130 )  


     PseudoPot. # 1 for Xx read from file:
     /home/marcocarmonaga/Apps/qe-7.0/pseudo/Nb1.00Mo0.00.upf
     MD5 check sum: e4b562b21cfca1bf7e2ab47e57cae993
     Pseudo is Norm-conserving, Zval = 13.0
     Generated using virtual.x code
     Using radial grid of  602 points, 12 beta functions with: 
                l(1) =   0
                l(2) =   0
                l(3) =   1
                l(4) =   1
                l(5) =   2
                l(6) =   2
                l(7) =   0
                l(8) =   0
                l(9) =   1
               l(10) =   1
               l(11) =   2
               l(12) =   2

     PseudoPot. # 2 for B  read from file:
     /home/marcocarmonaga/Apps/qe-7.0/pseudo/B_ONCV_PBE-1.2.upf
     MD5 check sum: eb3cbeacc2d324d57d903df00f564d27
     Pseudo is Norm-conserving, Zval =  3.0
     Generated using ONCVPSP code by D. R. Hamann
     Using radial grid of  602 points,  4 beta functions with: 
                l(1) =   0
                l(2) =   0
                l(3) =   1
                l(4) =   1

     atomic species   valence    mass     pseudopotential
        Mo            13.00    92.90600     Xx( 1.00)
        B              3.00    10.81000     B ( 1.00)

     24 Sym. Ops., with inversion, found



   Cartesian axes

     site n.     atom                  positions (alat units)
         1           Mo  tau(   1) = (   0.0000000   0.0000000   0.0000000  )
         2           B   tau(   2) = (   0.5000000   0.2886751   0.5352574  )
         3           B   tau(   3) = (   0.0000000   0.5773503   0.5352574  )

     number of k points=  2304  Gaussian smearing, width (Ry)=  0.0150

     Number of k-points >= 100: set verbosity='high' to print them.

     Dense  grid:    48439 G-vectors     FFT dimensions: (  48,  48,  50)

     Smooth grid:     7467 G-vectors     FFT dimensions: (  25,  25,  27)

     Estimated max dynamical RAM per process >      98.94 MB

     Estimated total dynamical RAM >     791.48 MB

     The potential is recalculated from file :
     ./tmp/_ph0/mob2.save/charge-density

     Starting wfcs are    0 atomic +   20 random wfcs

     Band Structure Calculation
     Davidson diagonalization with overlap

     ethr =  5.26E-11,  avg # of iterations = 22.0

     total cpu time spent up to now is      179.1 secs

     End of band structure calculation

     Number of k-points >= 100: set verbosity='high' to print the bands.

     the Fermi energy is    18.4723 ev

     Phonon calc for qp06                                                       

     bravais-lattice index     =            4
     lattice parameter (alat)  =       5.8733  a.u.
     unit-cell volume          =     187.8355 (a.u.)^3
     number of atoms/cell      =            3
     number of atomic types    =            2
     kinetic-energy cut-off    =      44.0000  Ry
     charge density cut-off    =     616.0000  Ry
     convergence threshold     =      1.0E-14
     beta                      =       0.7000
     number of iterations used =            4
     Exchange-correlation= PBE
                           (   1   4   3   4   0   0   0)


     celldm(1)=    5.87334  celldm(2)=    0.00000  celldm(3)=    1.07051
     celldm(4)=    0.00000  celldm(5)=    0.00000  celldm(6)=    0.00000

     crystal axes: (cart. coord. in units of alat)
               a(1) = (  1.0000  0.0000  0.0000 )  
               a(2) = ( -0.5000  0.8660  0.0000 )  
               a(3) = (  0.0000  0.0000  1.0705 )  

     reciprocal axes: (cart. coord. in units 2 pi/alat)
               b(1) = (  1.0000  0.5774  0.0000 )  
               b(2) = (  0.0000  1.1547  0.0000 )  
               b(3) = (  0.0000  0.0000  0.9341 )  


     Atoms inside the unit cell: 

     Cartesian axes

     site n.  atom      mass           positions (alat units)
        1     Mo  92.9060   tau(    1) = (    0.00000    0.00000    0.00000  )
        2     B   10.8100   tau(    2) = (    0.50000    0.28868    0.53526  )
        3     B   10.8100   tau(    3) = (    0.00000    0.57735    0.53526  )

     Computing dynamical matrix for 
                    q = (   0.3333333   0.5773503   0.3113766 )
 
      6 Sym.Ops. (no q -> -q+G )


     G cutoff =  538.2580  (   6055 G-vectors)     FFT grid: ( 48, 48, 50)
     G cutoff =  153.7880  (    932 G-vectors)  smooth grid: ( 25, 25, 27)

     number of k points=  2304  Gaussian smearing, width (Ry)=  0.0150

     PseudoPot. # 1 for Xx read from file:
     /home/marcocarmonaga/Apps/qe-7.0/pseudo/Nb1.00Mo0.00.upf
     MD5 check sum: e4b562b21cfca1bf7e2ab47e57cae993
     Pseudo is Norm-conserving, Zval = 13.0
     Generated using virtual.x code
     Using radial grid of  602 points, 12 beta functions with: 
                l(1) =   0
                l(2) =   0
                l(3) =   1
                l(4) =   1
                l(5) =   2
                l(6) =   2
                l(7) =   0
                l(8) =   0
                l(9) =   1
               l(10) =   1
               l(11) =   2
               l(12) =   2

     PseudoPot. # 2 for B  read from file:
     /home/marcocarmonaga/Apps/qe-7.0/pseudo/B_ONCV_PBE-1.2.upf
     MD5 check sum: eb3cbeacc2d324d57d903df00f564d27
     Pseudo is Norm-conserving, Zval =  3.0
     Generated using ONCVPSP code by D. R. Hamann
     Using radial grid of  602 points,  4 beta functions with: 
                l(1) =   0
                l(2) =   0
                l(3) =   1
                l(4) =   1

     Mode symmetry, C_3v (3m)   point group:


     Atomic displacements:
     There are    6 irreducible representations

     Representation     1      1 modes -  To be done

     Representation     2      1 modes -  To be done

     Representation     3      1 modes -  To be done

     Representation     4      2 modes -  To be done

     Representation     5      2 modes -  To be done

     Representation     6      2 modes -  To be done



     Alpha used in Ewald sum =   2.8000
     PHONON       :   3m 0.94s CPU   3m 5.44s WALL



     Representation #   1 mode #   1

     Self-consistent Calculation

      iter #   1 total cpu time :   209.8 secs   av.it.:   8.4
      thresh= 1.000E-02 alpha_mix =  0.700 |ddv_scf|^2 =  3.497E-05

      iter #   2 total cpu time :   238.9 secs   av.it.:  12.4
      thresh= 5.914E-04 alpha_mix =  0.700 |ddv_scf|^2 =  7.176E-05

      iter #   3 total cpu time :   270.1 secs   av.it.:  11.5
      thresh= 8.471E-04 alpha_mix =  0.700 |ddv_scf|^2 =  2.613E-05

      iter #   4 total cpu time :   295.9 secs   av.it.:  11.0
      thresh= 5.112E-04 alpha_mix =  0.700 |ddv_scf|^2 =  3.719E-08

      iter #   5 total cpu time :   322.6 secs   av.it.:  11.5
      thresh= 1.928E-05 alpha_mix =  0.700 |ddv_scf|^2 =  2.600E-10

      iter #   6 total cpu time :   349.7 secs   av.it.:  11.8
      thresh= 1.612E-06 alpha_mix =  0.700 |ddv_scf|^2 =  2.436E-12

      iter #   7 total cpu time :   376.4 secs   av.it.:  11.6
      thresh= 1.561E-07 alpha_mix =  0.700 |ddv_scf|^2 =  3.205E-14

      iter #   8 total cpu time :   404.2 secs   av.it.:  12.2
      thresh= 1.790E-08 alpha_mix =  0.700 |ddv_scf|^2 =  5.680E-16

     End of self-consistent calculation

     Convergence has been achieved 


     Representation #   2 mode #   2

     Self-consistent Calculation

      iter #   1 total cpu time :   425.6 secs   av.it.:   6.9
      thresh= 1.000E-02 alpha_mix =  0.700 |ddv_scf|^2 =  7.053E-06

      iter #   2 total cpu time :   454.0 secs   av.it.:  12.5
      thresh= 2.656E-04 alpha_mix =  0.700 |ddv_scf|^2 =  4.220E-05

      iter #   3 total cpu time :   479.9 secs   av.it.:  10.9
      thresh= 6.496E-04 alpha_mix =  0.700 |ddv_scf|^2 =  1.979E-06

      iter #   4 total cpu time :   506.1 secs   av.it.:  11.3
      thresh= 1.407E-04 alpha_mix =  0.700 |ddv_scf|^2 =  1.137E-09

      iter #   5 total cpu time :   533.4 secs   av.it.:  11.9
      thresh= 3.372E-06 alpha_mix =  0.700 |ddv_scf|^2 =  9.587E-11

      iter #   6 total cpu time :   559.9 secs   av.it.:  11.5
      thresh= 9.791E-07 alpha_mix =  0.700 |ddv_scf|^2 =  2.222E-12

      iter #   7 total cpu time :   586.3 secs   av.it.:  11.5
      thresh= 1.491E-07 alpha_mix =  0.700 |ddv_scf|^2 =  3.934E-15

     End of self-consistent calculation

     Convergence has been achieved 


     Representation #   3 mode #   3

     Self-consistent Calculation

      iter #   1 total cpu time :   603.7 secs   av.it.:   4.7
      thresh= 1.000E-02 alpha_mix =  0.700 |ddv_scf|^2 =  1.946E-08

      iter #   2 total cpu time :   628.6 secs   av.it.:  10.6
      thresh= 1.395E-05 alpha_mix =  0.700 |ddv_scf|^2 =  1.938E-09

      iter #   3 total cpu time :   652.1 secs   av.it.:   9.9
      thresh= 4.402E-06 alpha_mix =  0.700 |ddv_scf|^2 =  2.002E-12

      iter #   4 total cpu time :   679.2 secs   av.it.:  11.8
      thresh= 1.415E-07 alpha_mix =  0.700 |ddv_scf|^2 =  1.816E-15

     End of self-consistent calculation

     Convergence has been achieved 


     Representation #   4 modes #   4   5

     Self-consistent Calculation

      iter #   1 total cpu time :   720.5 secs   av.it.:   6.7
      thresh= 1.000E-02 alpha_mix =  0.700 |ddv_scf|^2 =  4.079E-07

      iter #   2 total cpu time :   789.3 secs   av.it.:  14.0
      thresh= 6.387E-05 alpha_mix =  0.700 |ddv_scf|^2 =  4.625E-07

      iter #   3 total cpu time :   848.3 secs   av.it.:  13.0
      thresh= 6.801E-05 alpha_mix =  0.700 |ddv_scf|^2 =  6.436E-09

      iter #   4 total cpu time :   908.3 secs   av.it.:  13.4
      thresh= 8.023E-06 alpha_mix =  0.700 |ddv_scf|^2 =  1.295E-10

      iter #   5 total cpu time :   967.8 secs   av.it.:  13.3
      thresh= 1.138E-06 alpha_mix =  0.700 |ddv_scf|^2 =  4.142E-12

      iter #   6 total cpu time :  1026.7 secs   av.it.:  13.1
      thresh= 2.035E-07 alpha_mix =  0.700 |ddv_scf|^2 =  1.167E-14

      iter #   7 total cpu time :  1088.8 secs   av.it.:  13.9
      thresh= 1.080E-08 alpha_mix =  0.700 |ddv_scf|^2 =  9.583E-17

     End of self-consistent calculation

     Convergence has been achieved 


     Representation #   5 modes #   6   7

     Self-consistent Calculation

      iter #   1 total cpu time :  1130.9 secs   av.it.:   6.9
      thresh= 1.000E-02 alpha_mix =  0.700 |ddv_scf|^2 =  6.241E-07

      iter #   2 total cpu time :  1193.1 secs   av.it.:  14.0
      thresh= 7.900E-05 alpha_mix =  0.700 |ddv_scf|^2 =  8.812E-07

      iter #   3 total cpu time :  1251.2 secs   av.it.:  12.9
      thresh= 9.387E-05 alpha_mix =  0.700 |ddv_scf|^2 =  2.951E-09

      iter #   4 total cpu time :  1311.9 secs   av.it.:  13.6
      thresh= 5.432E-06 alpha_mix =  0.700 |ddv_scf|^2 =  1.382E-10

      iter #   5 total cpu time :  1371.6 secs   av.it.:  13.4
      thresh= 1.176E-06 alpha_mix =  0.700 |ddv_scf|^2 =  4.030E-12

      iter #   6 total cpu time :  1430.6 secs   av.it.:  13.2
      thresh= 2.007E-07 alpha_mix =  0.700 |ddv_scf|^2 =  1.047E-14

      iter #   7 total cpu time :  1492.9 secs   av.it.:  14.0
      thresh= 1.023E-08 alpha_mix =  0.700 |ddv_scf|^2 =  6.859E-17

     End of self-consistent calculation

     Convergence has been achieved 


     Representation #   6 modes #   8   9

     Self-consistent Calculation

      iter #   1 total cpu time :  1543.8 secs   av.it.:   8.7
      thresh= 1.000E-02 alpha_mix =  0.700 |ddv_scf|^2 =  1.237E-05

      iter #   2 total cpu time :  1604.7 secs   av.it.:  13.6
      thresh= 3.517E-04 alpha_mix =  0.700 |ddv_scf|^2 =  1.388E-05

      iter #   3 total cpu time :  1661.9 secs   av.it.:  12.7
      thresh= 3.725E-04 alpha_mix =  0.700 |ddv_scf|^2 =  1.731E-07

      iter #   4 total cpu time :  1720.4 secs   av.it.:  13.0
      thresh= 4.160E-05 alpha_mix =  0.700 |ddv_scf|^2 =  3.350E-10

      iter #   5 total cpu time :  1780.6 secs   av.it.:  13.5
      thresh= 1.830E-06 alpha_mix =  0.700 |ddv_scf|^2 =  1.413E-11

      iter #   6 total cpu time :  1838.9 secs   av.it.:  13.0
      thresh= 3.759E-07 alpha_mix =  0.700 |ddv_scf|^2 =  6.541E-14

      iter #   7 total cpu time :  1898.4 secs   av.it.:  13.3
      thresh= 2.558E-08 alpha_mix =  0.700 |ddv_scf|^2 =  2.991E-15

     End of self-consistent calculation

     Convergence has been achieved 
 
     Number of q in the star =    4
     List of q in the star:
          1   0.333333333   0.577350269   0.311376641
          2   0.333333333   0.577350269  -0.311376641
          3  -0.333333333  -0.577350269  -0.311376641
          4  -0.333333333   0.577350269   0.311376641

     Diagonalizing the dynamical matrix

     q = (    0.333333333   0.577350269   0.311376641 ) 

 **************************************************************************
     freq (    1) =       5.599882 [THz] =     186.791951 [cm-1]
     freq (    2) =       6.775666 [THz] =     226.011899 [cm-1]
     freq (    3) =       6.775666 [THz] =     226.011899 [cm-1]
     freq (    4) =      16.320192 [THz] =     544.383014 [cm-1]
     freq (    5) =      16.320192 [THz] =     544.383014 [cm-1]
     freq (    6) =      17.782652 [THz] =     593.165421 [cm-1]
     freq (    7) =      19.772715 [THz] =     659.546779 [cm-1]
     freq (    8) =      19.772715 [THz] =     659.546779 [cm-1]
     freq (    9) =      22.510138 [THz] =     750.857374 [cm-1]
 **************************************************************************

     Mode symmetry, C_3v (3m)   point group:

     freq (   1-   1) =        186.8  [cm-1]   --> A_1  L_1           
     freq (   2-   3) =        226.0  [cm-1]   --> E    L_3           
     freq (   4-   5) =        544.4  [cm-1]   --> E    L_3           
     freq (   6-   6) =        593.2  [cm-1]   --> A_2  L_2           
     freq (   7-   8) =        659.5  [cm-1]   --> E    L_3           
     freq (   9-   9) =        750.9  [cm-1]   --> A_1  L_1           
 
     init_run     :      0.12s CPU      0.14s WALL (       1 calls)
     electrons    :    174.61s CPU    178.97s WALL (       1 calls)

     Called by init_run:
     wfcinit      :      0.00s CPU      0.00s WALL (       1 calls)
     potinit      :      0.02s CPU      0.02s WALL (       1 calls)
     hinit0       :      0.02s CPU      0.03s WALL (       1 calls)

     Called by electrons:
     c_bands      :    174.53s CPU    178.88s WALL (       1 calls)
     v_of_rho     :      0.03s CPU      0.03s WALL (       2 calls)

     Called by c_bands:
     init_us_2    :      6.96s CPU      7.28s WALL (   64512 calls)
     init_us_2:cp :      6.77s CPU      7.10s WALL (   64512 calls)
     cegterg      :    164.81s CPU    168.86s WALL (    3349 calls)

     Called by *egterg:
     cdiaghg      :     60.42s CPU     61.75s WALL (   53088 calls)
     h_psi        :   1286.02s CPU   1350.65s WALL ( 1458988 calls)
     g_psi        :      0.45s CPU      0.46s WALL (   50784 calls)

     Called by h_psi:
     h_psi:calbec :     74.93s CPU     78.84s WALL ( 1458988 calls)
     vloc_psi     :   1129.49s CPU   1186.18s WALL ( 1458988 calls)
     add_vuspsi   :     65.35s CPU     68.95s WALL ( 1458988 calls)

     General routines
     calbec       :    132.85s CPU    139.87s WALL ( 2914531 calls)
     fft          :      0.39s CPU      0.41s WALL (     819 calls)
     ffts         :      1.01s CPU      1.04s WALL (   10546 calls)
     fftw         :   1187.24s CPU   1248.94s WALL (21849894 calls)
     interpolate  :      0.10s CPU      0.10s WALL (     124 calls)
 
     Parallel routines
 
     PHONON       :  30m 9.87s CPU  31m39.85s WALL

     INITIALIZATION: 
     phq_setup    :      0.03s CPU      0.03s WALL (       1 calls)
     phq_init     :      5.67s CPU      5.69s WALL (       1 calls)
 
     phq_init     :      5.67s CPU      5.69s WALL (       1 calls)
     init_vloc    :      0.02s CPU      0.03s WALL (       2 calls)
     init_us_1    :      0.01s CPU      0.03s WALL (       2 calls)
     init_us_2    :      6.96s CPU      7.28s WALL (   64512 calls)
 
     DYNAMICAL MATRIX:
     dynmat0      :      4.95s CPU      4.95s WALL (       1 calls)
     phqscf       :   1628.93s CPU   1714.35s WALL (       1 calls)
     dynmatrix    :      0.00s CPU      0.00s WALL (       1 calls)
 
     phqscf       :   1628.93s CPU   1714.35s WALL (       1 calls)
     solve_linter :   1622.32s CPU   1707.65s WALL (       6 calls)
     drhodv       :      6.61s CPU      6.70s WALL (       6 calls)
 
     dynmat0      :      4.95s CPU      4.95s WALL (       1 calls)
     dynmat_us    :      4.94s CPU      4.95s WALL (       1 calls)
     d2ionq       :      0.00s CPU      0.00s WALL (       1 calls)
 
     dynmat_us    :      4.94s CPU      4.95s WALL (       1 calls)
 
     phqscf       :   1628.93s CPU   1714.35s WALL (       1 calls)
     solve_linter :   1622.32s CPU   1707.65s WALL (       6 calls)
 
     solve_linter :   1622.32s CPU   1707.65s WALL (       6 calls)
     dvqpsi_us    :     40.93s CPU     42.22s WALL (   10368 calls)
     sth_kernel   :   1576.56s CPU   1660.54s WALL (      40 calls)
     apply_dpot_b :     79.49s CPU     84.23s WALL (   59904 calls)
     ortho        :      8.44s CPU      8.91s WALL (   70272 calls)
     cgsolve      :   1381.11s CPU   1453.28s WALL (   70272 calls)
     incdrhoscf   :     90.41s CPU     96.02s WALL (   70272 calls)
     dv_of_drho   :      0.78s CPU      0.78s WALL (      61 calls)
     mix_pot      :      0.19s CPU      0.19s WALL (      40 calls)
     psymdvscf    :      2.77s CPU      2.79s WALL (      40 calls)
 
     dvqpsi_us    :     40.93s CPU     42.22s WALL (   10368 calls)
     dvqpsi_us_on :     14.09s CPU     14.53s WALL (   10368 calls)
 
     cgsolve      :   1381.11s CPU   1453.28s WALL (   70272 calls)
     ch_psi       :   1338.84s CPU   1408.40s WALL ( 1402551 calls)
 
     ch_psi       :   1338.84s CPU   1408.40s WALL ( 1402551 calls)
     h_psi        :   1286.02s CPU   1350.65s WALL ( 1458988 calls)
     last         :    119.00s CPU    125.46s WALL ( 1402551 calls)
 
     h_psi        :   1286.02s CPU   1350.65s WALL ( 1458988 calls)
     add_vuspsi   :     65.35s CPU     68.95s WALL ( 1458988 calls)
 
     incdrhoscf   :     90.41s CPU     96.02s WALL (   70272 calls)
 
 
      General routines
     calbec       :    132.85s CPU    139.87s WALL ( 2914531 calls)
     fft          :      0.39s CPU      0.41s WALL (     819 calls)
     ffts         :      1.01s CPU      1.04s WALL (   10546 calls)
     fftw         :   1187.24s CPU   1248.94s WALL (21849894 calls)
 
 
     PHONON       :  30m 9.87s CPU  31m39.85s WALL

 
   This run was terminated on:   8:40:34  31May2022            

=------------------------------------------------------------------------------=
   JOB DONE.
=------------------------------------------------------------------------------=
