
     Program PHONON v.7.0 starts on 31May2022 at  7:54:51 

     This program is part of the open-source Quantum ESPRESSO suite
     for quantum simulation of materials; please cite
         "P. Giannozzi et al., J. Phys.:Condens. Matter 21 395502 (2009);
         "P. Giannozzi et al., J. Phys.:Condens. Matter 29 465901 (2017);
         "P. Giannozzi et al., J. Chem. Phys. 152 154105 (2020);
          URL http://www.quantum-espresso.org", 
     in publications or presentations arising from this work. More details at
     http://www.quantum-espresso.org/quote

     Parallel version (MPI), running on     8 processors

     MPI processes distributed on     1 nodes
     R & G space division:  proc/nbgrp/npool/nimage =       8
     5699 MiB available memory on the printing compute node when the environment starts
 
     Reading input from mob2_fonon_05.in

     Reading xml data from directory:

     ./tmp/mob2.save/

     IMPORTANT: XC functional enforced from input :
     Exchange-correlation= PBE
                           (   1   4   3   4   0   0   0)
     Any further DFT definition will be discarded
     Please, verify this is what you really want

 
     Parallelization info
     --------------------
     sticks:   dense  smooth     PW     G-vecs:    dense   smooth      PW
     Min         185      52     15                 6053      930     163
     Max         186      53     16                 6056      935     166
     Sum        1483     421    127                48439     7467    1317
 
     Using Slab Decomposition
 
     Reading collected, re-writing distributed wavefunctions


     Dynamical matrices for ( 3, 3, 3)  uniform grid of q-points
     (   6 q-points):
       N         xq(1)         xq(2)         xq(3) 
       1   0.000000000   0.000000000   0.000000000
       2   0.000000000   0.000000000   0.311376641
       3   0.000000000   0.384900179   0.000000000
       4   0.000000000   0.384900179   0.311376641
       5   0.333333333   0.577350269   0.000000000
       6   0.333333333   0.577350269   0.311376641

     Calculation of q =    0.3333333   0.5773503   0.0000000

     Subspace diagonalization in iterative solution of the eigenvalue problem:
     a serial algorithm will be used

 
     Parallelization info
     --------------------
     sticks:   dense  smooth     PW     G-vecs:    dense   smooth      PW
     Min         185      52     19                 6053      930     214
     Max         186      53     22                 6056      935     215
     Sum        1483     421    163                48439     7467    1715
 
     Using Slab Decomposition
 

     Title: 
     Phonon calc for qp05                                                       


     bravais-lattice index     =            4
     lattice parameter (alat)  =       5.8733  a.u.
     unit-cell volume          =     187.8355 (a.u.)^3
     number of atoms/cell      =            3
     number of atomic types    =            2
     number of electrons       =        19.00
     number of Kohn-Sham states=           20
     kinetic-energy cutoff     =      44.0000  Ry
     charge density cutoff     =     616.0000  Ry
     Exchange-correlation= PBE
                           (   1   4   3   4   0   0   0)

     celldm(1)=   5.873335  celldm(2)=   0.000000  celldm(3)=   1.070515
     celldm(4)=   0.000000  celldm(5)=   0.000000  celldm(6)=   0.000000

     crystal axes: (cart. coord. in units of alat)
               a(1) = (   1.000000   0.000000   0.000000 )  
               a(2) = (  -0.500000   0.866025   0.000000 )  
               a(3) = (   0.000000   0.000000   1.070515 )  

     reciprocal axes: (cart. coord. in units 2 pi/alat)
               b(1) = (  1.000000  0.577350  0.000000 )  
               b(2) = (  0.000000  1.154701  0.000000 )  
               b(3) = (  0.000000  0.000000  0.934130 )  


     PseudoPot. # 1 for Xx read from file:
     /home/marcocarmonaga/Apps/qe-7.0/pseudo/Nb1.00Mo0.00.upf
     MD5 check sum: e4b562b21cfca1bf7e2ab47e57cae993
     Pseudo is Norm-conserving, Zval = 13.0
     Generated using virtual.x code
     Using radial grid of  602 points, 12 beta functions with: 
                l(1) =   0
                l(2) =   0
                l(3) =   1
                l(4) =   1
                l(5) =   2
                l(6) =   2
                l(7) =   0
                l(8) =   0
                l(9) =   1
               l(10) =   1
               l(11) =   2
               l(12) =   2

     PseudoPot. # 2 for B  read from file:
     /home/marcocarmonaga/Apps/qe-7.0/pseudo/B_ONCV_PBE-1.2.upf
     MD5 check sum: eb3cbeacc2d324d57d903df00f564d27
     Pseudo is Norm-conserving, Zval =  3.0
     Generated using ONCVPSP code by D. R. Hamann
     Using radial grid of  602 points,  4 beta functions with: 
                l(1) =   0
                l(2) =   0
                l(3) =   1
                l(4) =   1

     atomic species   valence    mass     pseudopotential
        Mo            13.00    92.90600     Xx( 1.00)
        B              3.00    10.81000     B ( 1.00)

     24 Sym. Ops., with inversion, found



   Cartesian axes

     site n.     atom                  positions (alat units)
         1           Mo  tau(   1) = (   0.0000000   0.0000000   0.0000000  )
         2           B   tau(   2) = (   0.5000000   0.2886751   0.5352574  )
         3           B   tau(   3) = (   0.0000000   0.5773503   0.5352574  )

     number of k points=  1152  Gaussian smearing, width (Ry)=  0.0150

     Number of k-points >= 100: set verbosity='high' to print them.

     Dense  grid:    48439 G-vectors     FFT dimensions: (  48,  48,  50)

     Smooth grid:     7467 G-vectors     FFT dimensions: (  25,  25,  27)

     Estimated max dynamical RAM per process >      58.46 MB

     Estimated total dynamical RAM >     467.71 MB

     The potential is recalculated from file :
     ./tmp/_ph0/mob2.save/charge-density

     Starting wfcs are    0 atomic +   20 random wfcs

     Band Structure Calculation
     Davidson diagonalization with overlap

     ethr =  5.26E-11,  avg # of iterations = 21.9

     total cpu time spent up to now is       89.6 secs

     End of band structure calculation

     Number of k-points >= 100: set verbosity='high' to print the bands.

     the Fermi energy is    18.4723 ev

     Phonon calc for qp05                                                       

     bravais-lattice index     =            4
     lattice parameter (alat)  =       5.8733  a.u.
     unit-cell volume          =     187.8355 (a.u.)^3
     number of atoms/cell      =            3
     number of atomic types    =            2
     kinetic-energy cut-off    =      44.0000  Ry
     charge density cut-off    =     616.0000  Ry
     convergence threshold     =      1.0E-14
     beta                      =       0.7000
     number of iterations used =            4
     Exchange-correlation= PBE
                           (   1   4   3   4   0   0   0)


     celldm(1)=    5.87334  celldm(2)=    0.00000  celldm(3)=    1.07051
     celldm(4)=    0.00000  celldm(5)=    0.00000  celldm(6)=    0.00000

     crystal axes: (cart. coord. in units of alat)
               a(1) = (  1.0000  0.0000  0.0000 )  
               a(2) = ( -0.5000  0.8660  0.0000 )  
               a(3) = (  0.0000  0.0000  1.0705 )  

     reciprocal axes: (cart. coord. in units 2 pi/alat)
               b(1) = (  1.0000  0.5774  0.0000 )  
               b(2) = (  0.0000  1.1547  0.0000 )  
               b(3) = (  0.0000  0.0000  0.9341 )  


     Atoms inside the unit cell: 

     Cartesian axes

     site n.  atom      mass           positions (alat units)
        1     Mo  92.9060   tau(    1) = (    0.00000    0.00000    0.00000  )
        2     B   10.8100   tau(    2) = (    0.50000    0.28868    0.53526  )
        3     B   10.8100   tau(    3) = (    0.00000    0.57735    0.53526  )

     Computing dynamical matrix for 
                    q = (   0.3333333   0.5773503   0.0000000 )
 
     12 Sym.Ops. (no q -> -q+G )


     G cutoff =  538.2580  (   6055 G-vectors)     FFT grid: ( 48, 48, 50)
     G cutoff =  153.7880  (    932 G-vectors)  smooth grid: ( 25, 25, 27)

     number of k points=  1152  Gaussian smearing, width (Ry)=  0.0150

     PseudoPot. # 1 for Xx read from file:
     /home/marcocarmonaga/Apps/qe-7.0/pseudo/Nb1.00Mo0.00.upf
     MD5 check sum: e4b562b21cfca1bf7e2ab47e57cae993
     Pseudo is Norm-conserving, Zval = 13.0
     Generated using virtual.x code
     Using radial grid of  602 points, 12 beta functions with: 
                l(1) =   0
                l(2) =   0
                l(3) =   1
                l(4) =   1
                l(5) =   2
                l(6) =   2
                l(7) =   0
                l(8) =   0
                l(9) =   1
               l(10) =   1
               l(11) =   2
               l(12) =   2

     PseudoPot. # 2 for B  read from file:
     /home/marcocarmonaga/Apps/qe-7.0/pseudo/B_ONCV_PBE-1.2.upf
     MD5 check sum: eb3cbeacc2d324d57d903df00f564d27
     Pseudo is Norm-conserving, Zval =  3.0
     Generated using ONCVPSP code by D. R. Hamann
     Using radial grid of  602 points,  4 beta functions with: 
                l(1) =   0
                l(2) =   0
                l(3) =   1
                l(4) =   1

     Mode symmetry, D_3h (-62m) point group:


     Atomic displacements:
     There are    6 irreducible representations

     Representation     1      1 modes -  To be done

     Representation     2      1 modes -  To be done

     Representation     3      2 modes -  To be done

     Representation     4      2 modes -  To be done

     Representation     5      1 modes -  To be done

     Representation     6      2 modes -  To be done



     Alpha used in Ewald sum =   2.8000
     PHONON       :   1m30.68s CPU   1m33.17s WALL



     Representation #   1 mode #   1

     Self-consistent Calculation

      iter #   1 total cpu time :   103.4 secs   av.it.:   6.7
      thresh= 1.000E-02 alpha_mix =  0.700 |ddv_scf|^2 =  2.385E-05

      iter #   2 total cpu time :   117.7 secs   av.it.:  12.4
      thresh= 4.883E-04 alpha_mix =  0.700 |ddv_scf|^2 =  3.279E-04

      iter #   3 total cpu time :   130.1 secs   av.it.:  10.5
      thresh= 1.811E-03 alpha_mix =  0.700 |ddv_scf|^2 =  1.334E-06

      iter #   4 total cpu time :   142.8 secs   av.it.:  10.9
      thresh= 1.155E-04 alpha_mix =  0.700 |ddv_scf|^2 =  3.278E-09

      iter #   5 total cpu time :   155.8 secs   av.it.:  11.1
      thresh= 5.726E-06 alpha_mix =  0.700 |ddv_scf|^2 =  2.601E-11

      iter #   6 total cpu time :   167.8 secs   av.it.:  10.2
      thresh= 5.100E-07 alpha_mix =  0.700 |ddv_scf|^2 =  2.084E-13

      iter #   7 total cpu time :   180.6 secs   av.it.:  11.0
      thresh= 4.566E-08 alpha_mix =  0.700 |ddv_scf|^2 =  2.036E-16

     End of self-consistent calculation

     Convergence has been achieved 


     Representation #   2 mode #   2

     Self-consistent Calculation

      iter #   1 total cpu time :   189.3 secs   av.it.:   4.7
      thresh= 1.000E-02 alpha_mix =  0.700 |ddv_scf|^2 =  1.962E-08

      iter #   2 total cpu time :   201.9 secs   av.it.:  10.7
      thresh= 1.401E-05 alpha_mix =  0.700 |ddv_scf|^2 =  1.942E-09

      iter #   3 total cpu time :   213.6 secs   av.it.:   9.8
      thresh= 4.406E-06 alpha_mix =  0.700 |ddv_scf|^2 =  2.302E-12

      iter #   4 total cpu time :   227.1 secs   av.it.:  11.8
      thresh= 1.517E-07 alpha_mix =  0.700 |ddv_scf|^2 =  2.032E-15

     End of self-consistent calculation

     Convergence has been achieved 


     Representation #   3 modes #   3   4

     Self-consistent Calculation

      iter #   1 total cpu time :   247.7 secs   av.it.:   6.7
      thresh= 1.000E-02 alpha_mix =  0.700 |ddv_scf|^2 =  1.408E-06

      iter #   2 total cpu time :   278.1 secs   av.it.:  13.6
      thresh= 1.186E-04 alpha_mix =  0.700 |ddv_scf|^2 =  3.480E-06

      iter #   3 total cpu time :   306.2 secs   av.it.:  12.3
      thresh= 1.865E-04 alpha_mix =  0.700 |ddv_scf|^2 =  5.454E-10

      iter #   4 total cpu time :   335.7 secs   av.it.:  13.1
      thresh= 2.335E-06 alpha_mix =  0.700 |ddv_scf|^2 =  3.984E-11

      iter #   5 total cpu time :   365.3 secs   av.it.:  13.3
      thresh= 6.312E-07 alpha_mix =  0.700 |ddv_scf|^2 =  2.852E-12

      iter #   6 total cpu time :   394.8 secs   av.it.:  13.1
      thresh= 1.689E-07 alpha_mix =  0.700 |ddv_scf|^2 =  1.348E-14

      iter #   7 total cpu time :   424.5 secs   av.it.:  13.0
      thresh= 1.161E-08 alpha_mix =  0.700 |ddv_scf|^2 =  5.656E-17

     End of self-consistent calculation

     Convergence has been achieved 


     Representation #   4 modes #   5   6

     Self-consistent Calculation

      iter #   1 total cpu time :   450.4 secs   av.it.:   8.8
      thresh= 1.000E-02 alpha_mix =  0.700 |ddv_scf|^2 =  2.539E-05

      iter #   2 total cpu time :   481.0 secs   av.it.:  13.5
      thresh= 5.039E-04 alpha_mix =  0.700 |ddv_scf|^2 =  5.792E-05

      iter #   3 total cpu time :   508.7 secs   av.it.:  12.2
      thresh= 7.610E-04 alpha_mix =  0.700 |ddv_scf|^2 =  7.573E-08

      iter #   4 total cpu time :   538.2 secs   av.it.:  13.2
      thresh= 2.752E-05 alpha_mix =  0.700 |ddv_scf|^2 =  1.956E-10

      iter #   5 total cpu time :   567.5 secs   av.it.:  13.0
      thresh= 1.399E-06 alpha_mix =  0.700 |ddv_scf|^2 =  5.529E-12

      iter #   6 total cpu time :   596.5 secs   av.it.:  12.9
      thresh= 2.351E-07 alpha_mix =  0.700 |ddv_scf|^2 =  2.088E-14

      iter #   7 total cpu time :   626.3 secs   av.it.:  13.3
      thresh= 1.445E-08 alpha_mix =  0.700 |ddv_scf|^2 =  1.511E-15

     End of self-consistent calculation

     Convergence has been achieved 


     Representation #   5 mode #   7

     Self-consistent Calculation

      iter #   1 total cpu time :   638.8 secs   av.it.:   7.9
      thresh= 1.000E-02 alpha_mix =  0.700 |ddv_scf|^2 =  8.684E-06

      iter #   2 total cpu time :   652.6 secs   av.it.:  12.1
      thresh= 2.947E-04 alpha_mix =  0.700 |ddv_scf|^2 =  9.540E-07

      iter #   3 total cpu time :   666.2 secs   av.it.:  11.9
      thresh= 9.767E-05 alpha_mix =  0.700 |ddv_scf|^2 =  9.079E-10

      iter #   4 total cpu time :   679.9 secs   av.it.:  11.9
      thresh= 3.013E-06 alpha_mix =  0.700 |ddv_scf|^2 =  3.719E-12

      iter #   5 total cpu time :   693.6 secs   av.it.:  11.9
      thresh= 1.929E-07 alpha_mix =  0.700 |ddv_scf|^2 =  7.718E-14

      iter #   6 total cpu time :   707.3 secs   av.it.:  12.0
      thresh= 2.778E-08 alpha_mix =  0.700 |ddv_scf|^2 =  8.325E-16

     End of self-consistent calculation

     Convergence has been achieved 


     Representation #   6 modes #   8   9

     Self-consistent Calculation

      iter #   1 total cpu time :   726.2 secs   av.it.:   5.9
      thresh= 1.000E-02 alpha_mix =  0.700 |ddv_scf|^2 =  5.439E-08

      iter #   2 total cpu time :   756.4 secs   av.it.:  13.5
      thresh= 2.332E-05 alpha_mix =  0.700 |ddv_scf|^2 =  1.853E-09

      iter #   3 total cpu time :   786.6 secs   av.it.:  13.4
      thresh= 4.305E-06 alpha_mix =  0.700 |ddv_scf|^2 =  8.261E-11

      iter #   4 total cpu time :   812.9 secs   av.it.:  11.5
      thresh= 9.089E-07 alpha_mix =  0.700 |ddv_scf|^2 =  1.236E-13

      iter #   5 total cpu time :   842.5 secs   av.it.:  13.1
      thresh= 3.516E-08 alpha_mix =  0.700 |ddv_scf|^2 =  2.957E-16

     End of self-consistent calculation

     Convergence has been achieved 
 
     Number of q in the star =    2
     List of q in the star:
          1   0.333333333   0.577350269   0.000000000
          2  -0.333333333  -0.577350269   0.000000000

     Diagonalizing the dynamical matrix

     q = (    0.333333333   0.577350269   0.000000000 ) 

 **************************************************************************
     freq (    1) =       5.788477 [THz] =     193.082801 [cm-1]
     freq (    2) =       6.764579 [THz] =     225.642072 [cm-1]
     freq (    3) =       6.764579 [THz] =     225.642072 [cm-1]
     freq (    4) =      14.222928 [THz] =     474.425799 [cm-1]
     freq (    5) =      14.222928 [THz] =     474.425799 [cm-1]
     freq (    6) =      17.164071 [THz] =     572.531767 [cm-1]
     freq (    7) =      20.480843 [THz] =     683.167395 [cm-1]
     freq (    8) =      20.480843 [THz] =     683.167395 [cm-1]
     freq (    9) =      23.768401 [THz] =     792.828501 [cm-1]
 **************************************************************************

     Mode symmetry, D_3h (-62m) point group:

     freq (   1-   1) =        193.1  [cm-1]   --> A''2               
     freq (   2-   3) =        225.6  [cm-1]   --> E'                 
     freq (   4-   5) =        474.4  [cm-1]   --> E''                
     freq (   6-   6) =        572.5  [cm-1]   --> A'_2               
     freq (   7-   8) =        683.2  [cm-1]   --> E'                 
     freq (   9-   9) =        792.8  [cm-1]   --> A'_1               
 
     init_run     :      0.12s CPU      0.13s WALL (       1 calls)
     electrons    :     87.18s CPU     89.47s WALL (       1 calls)

     Called by init_run:
     wfcinit      :      0.00s CPU      0.00s WALL (       1 calls)
     potinit      :      0.02s CPU      0.02s WALL (       1 calls)
     hinit0       :      0.02s CPU      0.03s WALL (       1 calls)

     Called by electrons:
     c_bands      :     87.14s CPU     89.42s WALL (       1 calls)
     v_of_rho     :      0.03s CPU      0.03s WALL (       2 calls)

     Called by c_bands:
     init_us_2    :      3.38s CPU      3.53s WALL (   29952 calls)
     init_us_2:cp :      3.29s CPU      3.44s WALL (   29952 calls)
     cegterg      :     82.18s CPU     84.33s WALL (    1656 calls)

     Called by *egterg:
     cdiaghg      :     30.18s CPU     30.88s WALL (   26367 calls)
     h_psi        :    563.66s CPU    590.26s WALL (  644790 calls)
     g_psi        :      0.22s CPU      0.22s WALL (   25215 calls)

     Called by h_psi:
     h_psi:calbec :     33.55s CPU     35.14s WALL (  644790 calls)
     vloc_psi     :    492.53s CPU    515.76s WALL (  644790 calls)
     add_vuspsi   :     30.52s CPU     32.05s WALL (  644790 calls)

     General routines
     calbec       :     59.31s CPU     62.21s WALL ( 1288053 calls)
     fft          :      0.39s CPU      0.44s WALL (     741 calls)
     ffts         :      0.49s CPU      0.51s WALL (    5350 calls)
     fftw         :    520.80s CPU    546.17s WALL ( 9672628 calls)
     interpolate  :      0.09s CPU      0.09s WALL (     112 calls)
 
     Parallel routines
 
     PHONON       :  13m25.69s CPU  14m 3.25s WALL

     INITIALIZATION: 
     phq_setup    :      0.02s CPU      0.03s WALL (       1 calls)
     phq_init     :      2.88s CPU      2.90s WALL (       1 calls)
 
     phq_init     :      2.88s CPU      2.90s WALL (       1 calls)
     init_vloc    :      0.03s CPU      0.03s WALL (       2 calls)
     init_us_1    :      0.02s CPU      0.03s WALL (       2 calls)
     init_us_2    :      3.38s CPU      3.53s WALL (   29952 calls)
 
     DYNAMICAL MATRIX:
     dynmat0      :      2.48s CPU      2.50s WALL (       1 calls)
     phqscf       :    715.00s CPU    750.04s WALL (       1 calls)
     dynmatrix    :      0.00s CPU      0.00s WALL (       1 calls)
 
     phqscf       :    715.00s CPU    750.04s WALL (       1 calls)
     solve_linter :    711.76s CPU    746.70s WALL (       6 calls)
     drhodv       :      3.25s CPU      3.33s WALL (       6 calls)
 
     dynmat0      :      2.48s CPU      2.50s WALL (       1 calls)
     dynmat_us    :      2.48s CPU      2.49s WALL (       1 calls)
     d2ionq       :      0.00s CPU      0.00s WALL (       1 calls)
 
     dynmat_us    :      2.48s CPU      2.49s WALL (       1 calls)
 
     phqscf       :    715.00s CPU    750.04s WALL (       1 calls)
     solve_linter :    711.76s CPU    746.70s WALL (       6 calls)
 
     solve_linter :    711.76s CPU    746.70s WALL (       6 calls)
     dvqpsi_us    :     20.15s CPU     20.85s WALL (    5184 calls)
     sth_kernel   :    685.58s CPU    719.74s WALL (      36 calls)
     apply_dpot_b :     34.73s CPU     36.66s WALL (   26496 calls)
     ortho        :      3.81s CPU      4.01s WALL (   31680 calls)
     cgsolve      :    599.02s CPU    628.29s WALL (   31680 calls)
     incdrhoscf   :     40.36s CPU     42.69s WALL (   31680 calls)
     dv_of_drho   :      0.74s CPU      0.76s WALL (      55 calls)
     mix_pot      :      0.16s CPU      0.16s WALL (      36 calls)
     psymdvscf    :      4.52s CPU      4.57s WALL (      36 calls)
 
     dvqpsi_us    :     20.15s CPU     20.85s WALL (    5184 calls)
     dvqpsi_us_on :      6.92s CPU      7.15s WALL (    5184 calls)
 
     cgsolve      :    599.02s CPU    628.29s WALL (   31680 calls)
     ch_psi       :    580.94s CPU    609.19s WALL (  616767 calls)
 
     ch_psi       :    580.94s CPU    609.19s WALL (  616767 calls)
     h_psi        :    563.66s CPU    590.26s WALL (  644790 calls)
     last         :     51.71s CPU     54.27s WALL (  616767 calls)
 
     h_psi        :    563.66s CPU    590.26s WALL (  644790 calls)
     add_vuspsi   :     30.52s CPU     32.05s WALL (  644790 calls)
 
     incdrhoscf   :     40.36s CPU     42.69s WALL (   31680 calls)
 
 
      General routines
     calbec       :     59.31s CPU     62.21s WALL ( 1288053 calls)
     fft          :      0.39s CPU      0.44s WALL (     741 calls)
     ffts         :      0.49s CPU      0.51s WALL (    5350 calls)
     fftw         :    520.80s CPU    546.17s WALL ( 9672628 calls)
 
 
     PHONON       :  13m25.69s CPU  14m 3.25s WALL

 
   This run was terminated on:   8: 8:54  31May2022            

=------------------------------------------------------------------------------=
   JOB DONE.
=------------------------------------------------------------------------------=
