
     Program PHONON v.7.0 starts on 31May2022 at  4:31:27 

     This program is part of the open-source Quantum ESPRESSO suite
     for quantum simulation of materials; please cite
         "P. Giannozzi et al., J. Phys.:Condens. Matter 21 395502 (2009);
         "P. Giannozzi et al., J. Phys.:Condens. Matter 29 465901 (2017);
         "P. Giannozzi et al., J. Chem. Phys. 152 154105 (2020);
          URL http://www.quantum-espresso.org", 
     in publications or presentations arising from this work. More details at
     http://www.quantum-espresso.org/quote

     Parallel version (MPI), running on     8 processors

     MPI processes distributed on     1 nodes
     R & G space division:  proc/nbgrp/npool/nimage =       8
     5308 MiB available memory on the printing compute node when the environment starts
 
     Reading input from mob2_fonon_01.in

     Reading xml data from directory:

     ./tmp/mob2.save/

     IMPORTANT: XC functional enforced from input :
     Exchange-correlation= PBE
                           (   1   4   3   4   0   0   0)
     Any further DFT definition will be discarded
     Please, verify this is what you really want

 
     Parallelization info
     --------------------
     sticks:   dense  smooth     PW     G-vecs:    dense   smooth      PW
     Min         185      52     15                 6053      930     163
     Max         186      53     16                 6056      935     166
     Sum        1483     421    127                48439     7467    1317
 
     Using Slab Decomposition
 
     Reading collected, re-writing distributed wavefunctions


     Dynamical matrices for ( 3, 3, 3)  uniform grid of q-points
     (   6 q-points):
       N         xq(1)         xq(2)         xq(3) 
       1   0.000000000   0.000000000   0.000000000
       2   0.000000000   0.000000000   0.311376641
       3   0.000000000   0.384900179   0.000000000
       4   0.000000000   0.384900179   0.311376641
       5   0.333333333   0.577350269   0.000000000
       6   0.333333333   0.577350269   0.311376641

     Calculation of q =    0.0000000   0.0000000   0.0000000

     Phonon calc for qp01                                                       

     bravais-lattice index     =            4
     lattice parameter (alat)  =       5.8733  a.u.
     unit-cell volume          =     187.8355 (a.u.)^3
     number of atoms/cell      =            3
     number of atomic types    =            2
     kinetic-energy cut-off    =      44.0000  Ry
     charge density cut-off    =     616.0000  Ry
     convergence threshold     =      1.0E-14
     beta                      =       0.7000
     number of iterations used =            4
     Exchange-correlation= PBE
                           (   1   4   3   4   0   0   0)


     celldm(1)=    5.87334  celldm(2)=    0.00000  celldm(3)=    1.07051
     celldm(4)=    0.00000  celldm(5)=    0.00000  celldm(6)=    0.00000

     crystal axes: (cart. coord. in units of alat)
               a(1) = (  1.0000  0.0000  0.0000 )  
               a(2) = ( -0.5000  0.8660  0.0000 )  
               a(3) = (  0.0000  0.0000  1.0705 )  

     reciprocal axes: (cart. coord. in units 2 pi/alat)
               b(1) = (  1.0000  0.5774  0.0000 )  
               b(2) = (  0.0000  1.1547  0.0000 )  
               b(3) = (  0.0000  0.0000  0.9341 )  


     Atoms inside the unit cell: 

     Cartesian axes

     site n.  atom      mass           positions (alat units)
        1     Mo  92.9060   tau(    1) = (    0.00000    0.00000    0.00000  )
        2     B   10.8100   tau(    2) = (    0.50000    0.28868    0.53526  )
        3     B   10.8100   tau(    3) = (    0.00000    0.57735    0.53526  )

     Computing dynamical matrix for 
                    q = (   0.0000000   0.0000000   0.0000000 )
 
     25 Sym.Ops. (with q -> -q+G )


     G cutoff =  538.2580  (   6055 G-vectors)     FFT grid: ( 48, 48, 50)
     G cutoff =  153.7880  (    932 G-vectors)  smooth grid: ( 25, 25, 27)

     number of k points=   333  Gaussian smearing, width (Ry)=  0.0150

     PseudoPot. # 1 for Xx read from file:
     /home/marcocarmonaga/Apps/qe-7.0/pseudo/Nb1.00Mo0.00.upf
     MD5 check sum: e4b562b21cfca1bf7e2ab47e57cae993
     Pseudo is Norm-conserving, Zval = 13.0
     Generated using virtual.x code
     Using radial grid of  602 points, 12 beta functions with: 
                l(1) =   0
                l(2) =   0
                l(3) =   1
                l(4) =   1
                l(5) =   2
                l(6) =   2
                l(7) =   0
                l(8) =   0
                l(9) =   1
               l(10) =   1
               l(11) =   2
               l(12) =   2

     PseudoPot. # 2 for B  read from file:
     /home/marcocarmonaga/Apps/qe-7.0/pseudo/B_ONCV_PBE-1.2.upf
     MD5 check sum: eb3cbeacc2d324d57d903df00f564d27
     Pseudo is Norm-conserving, Zval =  3.0
     Generated using ONCVPSP code by D. R. Hamann
     Using radial grid of  602 points,  4 beta functions with: 
                l(1) =   0
                l(2) =   0
                l(3) =   1
                l(4) =   1

     Mode symmetry, D_6h(6/mmm) point group:


     Atomic displacements:
     There are    6 irreducible representations

     Representation     1      1 modes -  To be done

     Representation     2      2 modes -  To be done

     Representation     3      1 modes -  To be done

     Representation     4      1 modes -  To be done

     Representation     5      2 modes -  To be done

     Representation     6      2 modes -  To be done



     Alpha used in Ewald sum =   2.8000
     PHONON       :      2.11s CPU      2.19s WALL



     Representation #   1 mode #   1

     Self-consistent Calculation
 
     Pert. #  1: Fermi energy shift (Ry) =     0.0000E+00     0.0000E+00

      iter #   1 total cpu time :     7.6 secs   av.it.:   4.8
      thresh= 1.000E-02 alpha_mix =  0.700 |ddv_scf|^2 =  4.332E-08
 
     Pert. #  1: Fermi energy shift (Ry) =     0.0000E+00     0.0000E+00

      iter #   2 total cpu time :    15.1 secs   av.it.:  11.0
      thresh= 2.081E-05 alpha_mix =  0.700 |ddv_scf|^2 =  2.039E-09
 
     Pert. #  1: Fermi energy shift (Ry) =     0.0000E+00     0.0000E+00

      iter #   3 total cpu time :    21.7 secs   av.it.:   9.5
      thresh= 4.516E-06 alpha_mix =  0.700 |ddv_scf|^2 =  8.978E-11
 
     Pert. #  1: Fermi energy shift (Ry) =     0.0000E+00     0.0000E+00

      iter #   4 total cpu time :    27.8 secs   av.it.:   8.5
      thresh= 9.475E-07 alpha_mix =  0.700 |ddv_scf|^2 =  6.416E-15

     End of self-consistent calculation

     Convergence has been achieved 


     Representation #   2 modes #   2   3

     Self-consistent Calculation
 
     Pert. #  1: Fermi energy shift (Ry) =    -2.8912E-19     1.5306E-40
     Pert. #  2: Fermi energy shift (Ry) =    -1.0119E-18     4.5918E-40

      iter #   1 total cpu time :    39.3 secs   av.it.:   5.8
      thresh= 1.000E-02 alpha_mix =  0.700 |ddv_scf|^2 =  7.490E-08
 
     Pert. #  1: Fermi energy shift (Ry) =    -5.7824E-19     4.7831E-43
     Pert. #  2: Fermi energy shift (Ry) =    -7.2280E-20    -4.7831E-43

      iter #   2 total cpu time :    55.7 secs   av.it.:  12.7
      thresh= 2.737E-05 alpha_mix =  0.700 |ddv_scf|^2 =  2.079E-09
 
     Pert. #  1: Fermi energy shift (Ry) =     0.0000E+00     1.4349E-42
     Pert. #  2: Fermi energy shift (Ry) =    -5.7824E-19     2.3915E-43

      iter #   3 total cpu time :    72.1 secs   av.it.:  12.6
      thresh= 4.559E-06 alpha_mix =  0.700 |ddv_scf|^2 =  7.813E-11
 
     Pert. #  1: Fermi energy shift (Ry) =     1.4456E-19     0.0000E+00
     Pert. #  2: Fermi energy shift (Ry) =     0.0000E+00     9.5662E-43

      iter #   4 total cpu time :    87.0 secs   av.it.:  11.2
      thresh= 8.839E-07 alpha_mix =  0.700 |ddv_scf|^2 =  6.582E-13
 
     Pert. #  1: Fermi energy shift (Ry) =     1.4456E-19     0.0000E+00
     Pert. #  2: Fermi energy shift (Ry) =     1.4456E-19     9.5662E-43

      iter #   5 total cpu time :   102.7 secs   av.it.:  12.0
      thresh= 8.113E-08 alpha_mix =  0.700 |ddv_scf|^2 =  4.449E-16

     End of self-consistent calculation

     Convergence has been achieved 


     Representation #   3 mode #   4

     Self-consistent Calculation
 
     Pert. #  1: Fermi energy shift (Ry) =    -1.1029E-24     0.0000E+00

      iter #   1 total cpu time :   110.3 secs   av.it.:   7.9
      thresh= 1.000E-02 alpha_mix =  0.700 |ddv_scf|^2 =  1.745E-05
 
     Pert. #  1: Fermi energy shift (Ry) =     0.0000E+00     0.0000E+00

      iter #   2 total cpu time :   118.1 secs   av.it.:  11.6
      thresh= 4.177E-04 alpha_mix =  0.700 |ddv_scf|^2 =  5.605E-06
 
     Pert. #  1: Fermi energy shift (Ry) =     2.7573E-25     0.0000E+00

      iter #   3 total cpu time :   125.5 secs   av.it.:  11.2
      thresh= 2.367E-04 alpha_mix =  0.700 |ddv_scf|^2 =  1.142E-09
 
     Pert. #  1: Fermi energy shift (Ry) =     0.0000E+00     0.0000E+00

      iter #   4 total cpu time :   133.4 secs   av.it.:  11.9
      thresh= 3.379E-06 alpha_mix =  0.700 |ddv_scf|^2 =  1.479E-10
 
     Pert. #  1: Fermi energy shift (Ry) =    -2.7573E-25     0.0000E+00

      iter #   5 total cpu time :   140.9 secs   av.it.:  11.2
      thresh= 1.216E-06 alpha_mix =  0.700 |ddv_scf|^2 =  5.968E-13
 
     Pert. #  1: Fermi energy shift (Ry) =     0.0000E+00     0.0000E+00

      iter #   6 total cpu time :   148.6 secs   av.it.:  11.5
      thresh= 7.725E-08 alpha_mix =  0.700 |ddv_scf|^2 =  2.119E-15

     End of self-consistent calculation

     Convergence has been achieved 


     Representation #   4 mode #   5

     Self-consistent Calculation
 
     Pert. #  1: Fermi energy shift (Ry) =     8.6165E-27    -2.5077E-37

      iter #   1 total cpu time :   154.9 secs   av.it.:   6.2
      thresh= 1.000E-02 alpha_mix =  0.700 |ddv_scf|^2 =  1.136E-06
 
     Pert. #  1: Fermi energy shift (Ry) =    -2.7573E-25     2.9387E-39

      iter #   2 total cpu time :   162.6 secs   av.it.:  11.5
      thresh= 1.066E-04 alpha_mix =  0.700 |ddv_scf|^2 =  3.041E-07
 
     Pert. #  1: Fermi energy shift (Ry) =    -2.7573E-25     0.0000E+00

      iter #   3 total cpu time :   170.1 secs   av.it.:  11.2
      thresh= 5.514E-05 alpha_mix =  0.700 |ddv_scf|^2 =  9.368E-10
 
     Pert. #  1: Fermi energy shift (Ry) =     0.0000E+00    -9.7958E-40

      iter #   4 total cpu time :   177.5 secs   av.it.:  11.1
      thresh= 3.061E-06 alpha_mix =  0.700 |ddv_scf|^2 =  4.399E-11
 
     Pert. #  1: Fermi energy shift (Ry) =     0.0000E+00     4.8979E-40

      iter #   5 total cpu time :   184.6 secs   av.it.:  10.5
      thresh= 6.632E-07 alpha_mix =  0.700 |ddv_scf|^2 =  5.450E-15

     End of self-consistent calculation

     Convergence has been achieved 


     Representation #   5 modes #   6   7

     Self-consistent Calculation
 
     Pert. #  1: Fermi energy shift (Ry) =     0.0000E+00     0.0000E+00
     Pert. #  2: Fermi energy shift (Ry) =    -4.1359E-25     1.0971E-37

      iter #   1 total cpu time :   195.4 secs   av.it.:   5.3
      thresh= 1.000E-02 alpha_mix =  0.700 |ddv_scf|^2 =  2.469E-08
 
     Pert. #  1: Fermi energy shift (Ry) =    -6.8932E-26     4.8979E-40
     Pert. #  2: Fermi energy shift (Ry) =     2.0680E-25    -2.9387E-39

      iter #   2 total cpu time :   211.8 secs   av.it.:  12.7
      thresh= 1.571E-05 alpha_mix =  0.700 |ddv_scf|^2 =  1.354E-09
 
     Pert. #  1: Fermi energy shift (Ry) =     1.3786E-25    -9.7958E-40
     Pert. #  2: Fermi energy shift (Ry) =     3.4466E-25    -1.4694E-39

      iter #   3 total cpu time :   228.1 secs   av.it.:  12.5
      thresh= 3.679E-06 alpha_mix =  0.700 |ddv_scf|^2 =  1.011E-10
 
     Pert. #  1: Fermi energy shift (Ry) =     6.8932E-26    -4.8979E-40
     Pert. #  2: Fermi energy shift (Ry) =     6.2039E-25    -4.8979E-40

      iter #   4 total cpu time :   243.9 secs   av.it.:  12.1
      thresh= 1.005E-06 alpha_mix =  0.700 |ddv_scf|^2 =  2.263E-12
 
     Pert. #  1: Fermi energy shift (Ry) =    -2.7573E-25    -4.8979E-40
     Pert. #  2: Fermi energy shift (Ry) =     6.8932E-26    -4.8979E-40

      iter #   5 total cpu time :   259.8 secs   av.it.:  12.2
      thresh= 1.504E-07 alpha_mix =  0.700 |ddv_scf|^2 =  5.418E-16

     End of self-consistent calculation

     Convergence has been achieved 


     Representation #   6 modes #   8   9

     Self-consistent Calculation
 
     Pert. #  1: Fermi energy shift (Ry) =    -5.5145E-25    -1.2539E-37
     Pert. #  2: Fermi energy shift (Ry) =     5.5145E-25    -1.5673E-38

      iter #   1 total cpu time :   274.0 secs   av.it.:   7.8
      thresh= 1.000E-02 alpha_mix =  0.700 |ddv_scf|^2 =  1.734E-06
 
     Pert. #  1: Fermi energy shift (Ry) =     0.0000E+00    -2.4489E-40
     Pert. #  2: Fermi energy shift (Ry) =    -2.7573E-25    -2.3265E-39

      iter #   2 total cpu time :   290.3 secs   av.it.:  12.6
      thresh= 1.317E-04 alpha_mix =  0.700 |ddv_scf|^2 =  1.580E-07
 
     Pert. #  1: Fermi energy shift (Ry) =     5.5145E-25    -1.7143E-39
     Pert. #  2: Fermi energy shift (Ry) =     0.0000E+00     0.0000E+00

      iter #   3 total cpu time :   306.5 secs   av.it.:  12.5
      thresh= 3.974E-05 alpha_mix =  0.700 |ddv_scf|^2 =  2.550E-10
 
     Pert. #  1: Fermi energy shift (Ry) =    -5.5145E-25    -1.2245E-39
     Pert. #  2: Fermi energy shift (Ry) =     0.0000E+00     0.0000E+00

      iter #   4 total cpu time :   322.9 secs   av.it.:  12.6
      thresh= 1.597E-06 alpha_mix =  0.700 |ddv_scf|^2 =  3.562E-12
 
     Pert. #  1: Fermi energy shift (Ry) =     5.5145E-25    -1.2245E-39
     Pert. #  2: Fermi energy shift (Ry) =    -2.7573E-25     0.0000E+00

      iter #   5 total cpu time :   338.6 secs   av.it.:  12.0
      thresh= 1.887E-07 alpha_mix =  0.700 |ddv_scf|^2 =  5.776E-14
 
     Pert. #  1: Fermi energy shift (Ry) =    -5.5145E-25    -1.2245E-39
     Pert. #  2: Fermi energy shift (Ry) =     0.0000E+00     0.0000E+00

      iter #   6 total cpu time :   354.9 secs   av.it.:  12.6
      thresh= 2.403E-08 alpha_mix =  0.700 |ddv_scf|^2 =  1.169E-16

     End of self-consistent calculation

     Convergence has been achieved 
 
     Number of q in the star =    1
     List of q in the star:
          1   0.000000000   0.000000000   0.000000000

     Diagonalizing the dynamical matrix

     q = (    0.000000000   0.000000000   0.000000000 ) 

 **************************************************************************
     freq (    1) =       0.558265 [THz] =      18.621725 [cm-1]
     freq (    2) =       0.558265 [THz] =      18.621725 [cm-1]
     freq (    3) =       0.629655 [THz] =      21.003026 [cm-1]
     freq (    4) =      12.405168 [THz] =     413.791874 [cm-1]
     freq (    5) =      12.405168 [THz] =     413.791874 [cm-1]
     freq (    6) =      14.148565 [THz] =     471.945329 [cm-1]
     freq (    7) =      16.323669 [THz] =     544.498999 [cm-1]
     freq (    8) =      23.375993 [THz] =     779.739186 [cm-1]
     freq (    9) =      23.375993 [THz] =     779.739186 [cm-1]
 **************************************************************************

     Mode symmetry, D_6h(6/mmm) point group:

     freq (   1-   2) =         18.6  [cm-1]   --> E_1u            I  
     freq (   3-   3) =         21.0  [cm-1]   --> A_2u            I  
     freq (   4-   5) =        413.8  [cm-1]   --> E_1u            I  
     freq (   6-   6) =        471.9  [cm-1]   --> A_2u            I  
     freq (   7-   7) =        544.5  [cm-1]   --> B_1g               
     freq (   8-   9) =        779.7  [cm-1]   --> E_2g            R  
 
     PHONON       :   5m37.34s CPU   5m55.26s WALL

     INITIALIZATION: 
     phq_setup    :      0.02s CPU      0.03s WALL (       1 calls)
     phq_init     :      1.60s CPU      1.62s WALL (       1 calls)
 
     phq_init     :      1.60s CPU      1.62s WALL (       1 calls)
     init_vloc    :      0.01s CPU      0.01s WALL (       1 calls)
     init_us_1    :      0.01s CPU      0.01s WALL (       1 calls)
     init_us_2    :      1.80s CPU      1.89s WALL (   16983 calls)
 
     DYNAMICAL MATRIX:
     dynmat0      :      1.41s CPU      1.41s WALL (       1 calls)
     phqscf       :    335.22s CPU    353.05s WALL (       1 calls)
     dynmatrix    :      0.00s CPU      0.00s WALL (       1 calls)
 
     phqscf       :    335.22s CPU    353.05s WALL (       1 calls)
     solve_linter :    333.41s CPU    351.21s WALL (       6 calls)
     drhodv       :      1.82s CPU      1.84s WALL (       6 calls)
 
     dynmat0      :      1.41s CPU      1.41s WALL (       1 calls)
     dynmat_us    :      1.41s CPU      1.41s WALL (       1 calls)
     d2ionq       :      0.00s CPU      0.00s WALL (       1 calls)
 
     dynmat_us    :      1.41s CPU      1.41s WALL (       1 calls)
 
     phqscf       :    335.22s CPU    353.05s WALL (       1 calls)
     solve_linter :    333.41s CPU    351.21s WALL (       6 calls)
 
     solve_linter :    333.41s CPU    351.21s WALL (       6 calls)
     dvqpsi_us    :     11.58s CPU     11.95s WALL (    2997 calls)
     sth_kernel   :    310.32s CPU    327.46s WALL (      31 calls)
     apply_dpot_b :     16.28s CPU     17.30s WALL (   12654 calls)
     ortho        :      1.72s CPU      1.82s WALL (   15651 calls)
     cgsolve      :    269.38s CPU    283.93s WALL (   15651 calls)
     incdrhoscf   :     19.74s CPU     21.00s WALL (   15651 calls)
     dv_of_drho   :      0.59s CPU      0.64s WALL (      47 calls)
     mix_pot      :      0.12s CPU      0.12s WALL (      31 calls)
     ef_shift     :      0.04s CPU      0.05s WALL (      31 calls)
     ef_shift_wfc :      0.12s CPU      0.12s WALL (       6 calls)
     localdos     :      2.68s CPU      2.80s WALL (       6 calls)
     psymdvscf    :      7.61s CPU      7.68s WALL (      31 calls)
 
     dvqpsi_us    :     11.58s CPU     11.95s WALL (    2997 calls)
     dvqpsi_us_on :      3.96s CPU      4.09s WALL (    2997 calls)
 
     cgsolve      :    269.38s CPU    283.93s WALL (   15651 calls)
     ch_psi       :    261.79s CPU    275.86s WALL (  273658 calls)
 
     ch_psi       :    261.79s CPU    275.86s WALL (  273658 calls)
     h_psi        :    235.22s CPU    247.92s WALL (  273658 calls)
     last         :     22.40s CPU     23.62s WALL (  273658 calls)
 
     h_psi        :    235.22s CPU    247.92s WALL (  273658 calls)
     add_vuspsi   :     12.20s CPU     12.90s WALL (  273658 calls)
 
     incdrhoscf   :     19.74s CPU     21.00s WALL (   15651 calls)
 
 
      General routines
     calbec       :     25.12s CPU     26.47s WALL (  564632 calls)
     fft          :      0.33s CPU      0.39s WALL (     726 calls)
     ffts         :      1.78s CPU      1.86s WALL (   23024 calls)
     fftw         :    223.06s CPU    235.40s WALL ( 4209736 calls)
 
 
     PHONON       :   5m37.34s CPU   5m55.27s WALL

 
   This run was terminated on:   4:37:22  31May2022            

=------------------------------------------------------------------------------=
   JOB DONE.
=------------------------------------------------------------------------------=
