
     Program PHONON v.7.0 starts on 31May2022 at  4:37:23 

     This program is part of the open-source Quantum ESPRESSO suite
     for quantum simulation of materials; please cite
         "P. Giannozzi et al., J. Phys.:Condens. Matter 21 395502 (2009);
         "P. Giannozzi et al., J. Phys.:Condens. Matter 29 465901 (2017);
         "P. Giannozzi et al., J. Chem. Phys. 152 154105 (2020);
          URL http://www.quantum-espresso.org", 
     in publications or presentations arising from this work. More details at
     http://www.quantum-espresso.org/quote

     Parallel version (MPI), running on     8 processors

     MPI processes distributed on     1 nodes
     R & G space division:  proc/nbgrp/npool/nimage =       8
     5298 MiB available memory on the printing compute node when the environment starts
 
     Reading input from mob2_fonon_02.in

     Reading xml data from directory:

     ./tmp/mob2.save/

     IMPORTANT: XC functional enforced from input :
     Exchange-correlation= PBE
                           (   1   4   3   4   0   0   0)
     Any further DFT definition will be discarded
     Please, verify this is what you really want

 
     Parallelization info
     --------------------
     sticks:   dense  smooth     PW     G-vecs:    dense   smooth      PW
     Min         185      52     15                 6053      930     163
     Max         186      53     16                 6056      935     166
     Sum        1483     421    127                48439     7467    1317
 
     Using Slab Decomposition
 
     Reading collected, re-writing distributed wavefunctions


     Dynamical matrices for ( 3, 3, 3)  uniform grid of q-points
     (   6 q-points):
       N         xq(1)         xq(2)         xq(3) 
       1   0.000000000   0.000000000   0.000000000
       2   0.000000000   0.000000000   0.311376641
       3   0.000000000   0.384900179   0.000000000
       4   0.000000000   0.384900179   0.311376641
       5   0.333333333   0.577350269   0.000000000
       6   0.333333333   0.577350269   0.311376641

     Calculation of q =    0.0000000   0.0000000   0.3113766

     Subspace diagonalization in iterative solution of the eigenvalue problem:
     a serial algorithm will be used

 
     Parallelization info
     --------------------
     sticks:   dense  smooth     PW     G-vecs:    dense   smooth      PW
     Min         185      52     17                 6053      930     179
     Max         186      53     18                 6056      935     182
     Sum        1483     421    139                48439     7467    1449
 
     Using Slab Decomposition
 

     Title: 
     Phonon calc for qp02                                                       


     bravais-lattice index     =            4
     lattice parameter (alat)  =       5.8733  a.u.
     unit-cell volume          =     187.8355 (a.u.)^3
     number of atoms/cell      =            3
     number of atomic types    =            2
     number of electrons       =        19.00
     number of Kohn-Sham states=           20
     kinetic-energy cutoff     =      44.0000  Ry
     charge density cutoff     =     616.0000  Ry
     Exchange-correlation= PBE
                           (   1   4   3   4   0   0   0)

     celldm(1)=   5.873335  celldm(2)=   0.000000  celldm(3)=   1.070515
     celldm(4)=   0.000000  celldm(5)=   0.000000  celldm(6)=   0.000000

     crystal axes: (cart. coord. in units of alat)
               a(1) = (   1.000000   0.000000   0.000000 )  
               a(2) = (  -0.500000   0.866025   0.000000 )  
               a(3) = (   0.000000   0.000000   1.070515 )  

     reciprocal axes: (cart. coord. in units 2 pi/alat)
               b(1) = (  1.000000  0.577350  0.000000 )  
               b(2) = (  0.000000  1.154701  0.000000 )  
               b(3) = (  0.000000  0.000000  0.934130 )  


     PseudoPot. # 1 for Xx read from file:
     /home/marcocarmonaga/Apps/qe-7.0/pseudo/Nb1.00Mo0.00.upf
     MD5 check sum: e4b562b21cfca1bf7e2ab47e57cae993
     Pseudo is Norm-conserving, Zval = 13.0
     Generated using virtual.x code
     Using radial grid of  602 points, 12 beta functions with: 
                l(1) =   0
                l(2) =   0
                l(3) =   1
                l(4) =   1
                l(5) =   2
                l(6) =   2
                l(7) =   0
                l(8) =   0
                l(9) =   1
               l(10) =   1
               l(11) =   2
               l(12) =   2

     PseudoPot. # 2 for B  read from file:
     /home/marcocarmonaga/Apps/qe-7.0/pseudo/B_ONCV_PBE-1.2.upf
     MD5 check sum: eb3cbeacc2d324d57d903df00f564d27
     Pseudo is Norm-conserving, Zval =  3.0
     Generated using ONCVPSP code by D. R. Hamann
     Using radial grid of  602 points,  4 beta functions with: 
                l(1) =   0
                l(2) =   0
                l(3) =   1
                l(4) =   1

     atomic species   valence    mass     pseudopotential
        Mo            13.00    92.90600     Xx( 1.00)
        B              3.00    10.81000     B ( 1.00)

     24 Sym. Ops., with inversion, found



   Cartesian axes

     site n.     atom                  positions (alat units)
         1           Mo  tau(   1) = (   0.0000000   0.0000000   0.0000000  )
         2           B   tau(   2) = (   0.5000000   0.2886751   0.5352574  )
         3           B   tau(   3) = (   0.0000000   0.5773503   0.5352574  )

     number of k points=  1332  Gaussian smearing, width (Ry)=  0.0150

     Number of k-points >= 100: set verbosity='high' to print them.

     Dense  grid:    48439 G-vectors     FFT dimensions: (  48,  48,  50)

     Smooth grid:     7467 G-vectors     FFT dimensions: (  25,  25,  27)

     Estimated max dynamical RAM per process >      64.55 MB

     Estimated total dynamical RAM >     516.44 MB

     The potential is recalculated from file :
     ./tmp/_ph0/mob2.save/charge-density

     Starting wfcs are    0 atomic +   20 random wfcs

     Band Structure Calculation
     Davidson diagonalization with overlap

     ethr =  5.26E-11,  avg # of iterations = 21.7

     total cpu time spent up to now is      101.7 secs

     End of band structure calculation

     Number of k-points >= 100: set verbosity='high' to print the bands.

     the Fermi energy is    18.4723 ev

     Phonon calc for qp02                                                       

     bravais-lattice index     =            4
     lattice parameter (alat)  =       5.8733  a.u.
     unit-cell volume          =     187.8355 (a.u.)^3
     number of atoms/cell      =            3
     number of atomic types    =            2
     kinetic-energy cut-off    =      44.0000  Ry
     charge density cut-off    =     616.0000  Ry
     convergence threshold     =      1.0E-14
     beta                      =       0.7000
     number of iterations used =            4
     Exchange-correlation= PBE
                           (   1   4   3   4   0   0   0)


     celldm(1)=    5.87334  celldm(2)=    0.00000  celldm(3)=    1.07051
     celldm(4)=    0.00000  celldm(5)=    0.00000  celldm(6)=    0.00000

     crystal axes: (cart. coord. in units of alat)
               a(1) = (  1.0000  0.0000  0.0000 )  
               a(2) = ( -0.5000  0.8660  0.0000 )  
               a(3) = (  0.0000  0.0000  1.0705 )  

     reciprocal axes: (cart. coord. in units 2 pi/alat)
               b(1) = (  1.0000  0.5774  0.0000 )  
               b(2) = (  0.0000  1.1547  0.0000 )  
               b(3) = (  0.0000  0.0000  0.9341 )  


     Atoms inside the unit cell: 

     Cartesian axes

     site n.  atom      mass           positions (alat units)
        1     Mo  92.9060   tau(    1) = (    0.00000    0.00000    0.00000  )
        2     B   10.8100   tau(    2) = (    0.50000    0.28868    0.53526  )
        3     B   10.8100   tau(    3) = (    0.00000    0.57735    0.53526  )

     Computing dynamical matrix for 
                    q = (   0.0000000   0.0000000   0.3113766 )
 
     12 Sym.Ops. (no q -> -q+G )


     G cutoff =  538.2580  (   6055 G-vectors)     FFT grid: ( 48, 48, 50)
     G cutoff =  153.7880  (    932 G-vectors)  smooth grid: ( 25, 25, 27)

     number of k points=  1332  Gaussian smearing, width (Ry)=  0.0150

     PseudoPot. # 1 for Xx read from file:
     /home/marcocarmonaga/Apps/qe-7.0/pseudo/Nb1.00Mo0.00.upf
     MD5 check sum: e4b562b21cfca1bf7e2ab47e57cae993
     Pseudo is Norm-conserving, Zval = 13.0
     Generated using virtual.x code
     Using radial grid of  602 points, 12 beta functions with: 
                l(1) =   0
                l(2) =   0
                l(3) =   1
                l(4) =   1
                l(5) =   2
                l(6) =   2
                l(7) =   0
                l(8) =   0
                l(9) =   1
               l(10) =   1
               l(11) =   2
               l(12) =   2

     PseudoPot. # 2 for B  read from file:
     /home/marcocarmonaga/Apps/qe-7.0/pseudo/B_ONCV_PBE-1.2.upf
     MD5 check sum: eb3cbeacc2d324d57d903df00f564d27
     Pseudo is Norm-conserving, Zval =  3.0
     Generated using ONCVPSP code by D. R. Hamann
     Using radial grid of  602 points,  4 beta functions with: 
                l(1) =   0
                l(2) =   0
                l(3) =   1
                l(4) =   1

     Mode symmetry, C_6v (6mm)  point group:


     Atomic displacements:
     There are    6 irreducible representations

     Representation     1      1 modes -  To be done

     Representation     2      1 modes -  To be done

     Representation     3      1 modes -  To be done

     Representation     4      2 modes -  To be done

     Representation     5      2 modes -  To be done

     Representation     6      2 modes -  To be done



     Alpha used in Ewald sum =   2.8000
     PHONON       :   1m42.83s CPU   1m45.67s WALL



     Representation #   1 mode #   1

     Self-consistent Calculation

      iter #   1 total cpu time :   120.5 secs   av.it.:   9.2
      thresh= 1.000E-02 alpha_mix =  0.700 |ddv_scf|^2 =  9.129E-03

      iter #   2 total cpu time :   135.6 secs   av.it.:  11.4
      thresh= 9.554E-03 alpha_mix =  0.700 |ddv_scf|^2 =  1.038E+00

      iter #   3 total cpu time :   150.6 secs   av.it.:  11.3
      thresh= 1.000E-02 alpha_mix =  0.700 |ddv_scf|^2 =  2.117E-03

      iter #   4 total cpu time :   164.5 secs   av.it.:  10.3
      thresh= 4.602E-03 alpha_mix =  0.700 |ddv_scf|^2 =  3.425E-04

      iter #   5 total cpu time :   177.9 secs   av.it.:   9.9
      thresh= 1.851E-03 alpha_mix =  0.700 |ddv_scf|^2 =  3.200E-06

      iter #   6 total cpu time :   191.1 secs   av.it.:   9.8
      thresh= 1.789E-04 alpha_mix =  0.700 |ddv_scf|^2 =  6.552E-08

      iter #   7 total cpu time :   204.0 secs   av.it.:   9.4
      thresh= 2.560E-05 alpha_mix =  0.700 |ddv_scf|^2 =  8.362E-10

      iter #   8 total cpu time :   217.1 secs   av.it.:   9.6
      thresh= 2.892E-06 alpha_mix =  0.700 |ddv_scf|^2 =  7.443E-12

      iter #   9 total cpu time :   231.5 secs   av.it.:  10.8
      thresh= 2.728E-07 alpha_mix =  0.700 |ddv_scf|^2 =  1.446E-10

      iter #  10 total cpu time :   243.9 secs   av.it.:   8.9
      thresh= 1.203E-06 alpha_mix =  0.700 |ddv_scf|^2 =  7.446E-13

      iter #  11 total cpu time :   258.2 secs   av.it.:  10.8
      thresh= 8.629E-08 alpha_mix =  0.700 |ddv_scf|^2 =  1.577E-13

      iter #  12 total cpu time :   272.4 secs   av.it.:  10.7
      thresh= 3.971E-08 alpha_mix =  0.700 |ddv_scf|^2 =  1.804E-14

      iter #  13 total cpu time :   285.9 secs   av.it.:  10.0
      thresh= 1.343E-08 alpha_mix =  0.700 |ddv_scf|^2 =  1.463E-16

     End of self-consistent calculation

     Convergence has been achieved 


     Representation #   2 mode #   2

     Self-consistent Calculation

      iter #   1 total cpu time :   298.4 secs   av.it.:   7.1
      thresh= 1.000E-02 alpha_mix =  0.700 |ddv_scf|^2 =  1.340E-03

      iter #   2 total cpu time :   313.5 secs   av.it.:  11.4
      thresh= 3.660E-03 alpha_mix =  0.700 |ddv_scf|^2 =  1.730E-01

      iter #   3 total cpu time :   327.1 secs   av.it.:  10.0
      thresh= 1.000E-02 alpha_mix =  0.700 |ddv_scf|^2 =  1.558E-05

      iter #   4 total cpu time :   342.5 secs   av.it.:  11.7
      thresh= 3.947E-04 alpha_mix =  0.700 |ddv_scf|^2 =  7.370E-05

      iter #   5 total cpu time :   356.1 secs   av.it.:  10.0
      thresh= 8.585E-04 alpha_mix =  0.700 |ddv_scf|^2 =  8.079E-07

      iter #   6 total cpu time :   369.1 secs   av.it.:   9.5
      thresh= 8.988E-05 alpha_mix =  0.700 |ddv_scf|^2 =  1.196E-08

      iter #   7 total cpu time :   382.1 secs   av.it.:   9.5
      thresh= 1.094E-05 alpha_mix =  0.700 |ddv_scf|^2 =  3.030E-12

      iter #   8 total cpu time :   397.1 secs   av.it.:  11.3
      thresh= 1.741E-07 alpha_mix =  0.700 |ddv_scf|^2 =  1.324E-12

      iter #   9 total cpu time :   411.5 secs   av.it.:  10.7
      thresh= 1.151E-07 alpha_mix =  0.700 |ddv_scf|^2 =  1.305E-11

      iter #  10 total cpu time :   423.7 secs   av.it.:   8.7
      thresh= 3.612E-07 alpha_mix =  0.700 |ddv_scf|^2 =  2.108E-13

      iter #  11 total cpu time :   437.6 secs   av.it.:  10.4
      thresh= 4.591E-08 alpha_mix =  0.700 |ddv_scf|^2 =  1.892E-14

      iter #  12 total cpu time :   451.3 secs   av.it.:  10.3
      thresh= 1.375E-08 alpha_mix =  0.700 |ddv_scf|^2 =  1.168E-16

     End of self-consistent calculation

     Convergence has been achieved 


     Representation #   3 mode #   3

     Self-consistent Calculation

      iter #   1 total cpu time :   461.4 secs   av.it.:   4.9
      thresh= 1.000E-02 alpha_mix =  0.700 |ddv_scf|^2 =  6.638E-08

      iter #   2 total cpu time :   476.3 secs   av.it.:  11.2
      thresh= 2.576E-05 alpha_mix =  0.700 |ddv_scf|^2 =  2.316E-09

      iter #   3 total cpu time :   490.4 secs   av.it.:  10.6
      thresh= 4.813E-06 alpha_mix =  0.700 |ddv_scf|^2 =  2.600E-10

      iter #   4 total cpu time :   504.8 secs   av.it.:  10.8
      thresh= 1.613E-06 alpha_mix =  0.700 |ddv_scf|^2 =  3.233E-11

      iter #   5 total cpu time :   519.3 secs   av.it.:  10.9
      thresh= 5.686E-07 alpha_mix =  0.700 |ddv_scf|^2 =  5.683E-15

     End of self-consistent calculation

     Convergence has been achieved 


     Representation #   4 modes #   4   5

     Self-consistent Calculation

      iter #   1 total cpu time :   539.8 secs   av.it.:   5.4
      thresh= 1.000E-02 alpha_mix =  0.700 |ddv_scf|^2 =  2.142E-08

      iter #   2 total cpu time :   572.9 secs   av.it.:  13.0
      thresh= 1.464E-05 alpha_mix =  0.700 |ddv_scf|^2 =  8.053E-10

      iter #   3 total cpu time :   605.9 secs   av.it.:  12.9
      thresh= 2.838E-06 alpha_mix =  0.700 |ddv_scf|^2 =  7.352E-11

      iter #   4 total cpu time :   637.4 secs   av.it.:  12.3
      thresh= 8.574E-07 alpha_mix =  0.700 |ddv_scf|^2 =  2.093E-12

      iter #   5 total cpu time :   670.2 secs   av.it.:  12.8
      thresh= 1.447E-07 alpha_mix =  0.700 |ddv_scf|^2 =  3.827E-15

     End of self-consistent calculation

     Convergence has been achieved 


     Representation #   5 modes #   6   7

     Self-consistent Calculation

      iter #   1 total cpu time :   697.3 secs   av.it.:   7.9
      thresh= 1.000E-02 alpha_mix =  0.700 |ddv_scf|^2 =  1.591E-06

      iter #   2 total cpu time :   730.2 secs   av.it.:  12.9
      thresh= 1.261E-04 alpha_mix =  0.700 |ddv_scf|^2 =  1.222E-07

      iter #   3 total cpu time :   762.9 secs   av.it.:  12.8
      thresh= 3.496E-05 alpha_mix =  0.700 |ddv_scf|^2 =  2.456E-10

      iter #   4 total cpu time :   795.5 secs   av.it.:  12.8
      thresh= 1.567E-06 alpha_mix =  0.700 |ddv_scf|^2 =  3.498E-12

      iter #   5 total cpu time :   828.2 secs   av.it.:  12.7
      thresh= 1.870E-07 alpha_mix =  0.700 |ddv_scf|^2 =  7.527E-14

      iter #   6 total cpu time :   861.5 secs   av.it.:  13.1
      thresh= 2.744E-08 alpha_mix =  0.700 |ddv_scf|^2 =  6.306E-16

     End of self-consistent calculation

     Convergence has been achieved 


     Representation #   6 modes #   8   9

     Self-consistent Calculation

      iter #   1 total cpu time :   883.1 secs   av.it.:   5.8
      thresh= 1.000E-02 alpha_mix =  0.700 |ddv_scf|^2 =  6.804E-08

      iter #   2 total cpu time :   915.7 secs   av.it.:  12.7
      thresh= 2.608E-05 alpha_mix =  0.700 |ddv_scf|^2 =  1.390E-09

      iter #   3 total cpu time :   948.1 secs   av.it.:  12.6
      thresh= 3.729E-06 alpha_mix =  0.700 |ddv_scf|^2 =  7.095E-11

      iter #   4 total cpu time :   977.3 secs   av.it.:  11.2
      thresh= 8.423E-07 alpha_mix =  0.700 |ddv_scf|^2 =  1.672E-13

      iter #   5 total cpu time :  1010.2 secs   av.it.:  12.8
      thresh= 4.089E-08 alpha_mix =  0.700 |ddv_scf|^2 =  4.772E-16

     End of self-consistent calculation

     Convergence has been achieved 
 
     Number of q in the star =    2
     List of q in the star:
          1   0.000000000   0.000000000   0.311376641
          2   0.000000000   0.000000000  -0.311376641

     Diagonalizing the dynamical matrix

     q = (    0.000000000   0.000000000   0.311376641 ) 

 **************************************************************************
     freq (    1) =       4.301527 [THz] =     143.483508 [cm-1]
     freq (    2) =       4.301527 [THz] =     143.483508 [cm-1]
     freq (    3) =       5.264956 [THz] =     175.620032 [cm-1]
     freq (    4) =      12.353359 [THz] =     412.063708 [cm-1]
     freq (    5) =      12.353359 [THz] =     412.063708 [cm-1]
     freq (    6) =      15.800869 [THz] =     527.060246 [cm-1]
     freq (    7) =      15.899575 [THz] =     530.352738 [cm-1]
     freq (    8) =      22.511509 [THz] =     750.903113 [cm-1]
     freq (    9) =      22.511509 [THz] =     750.903113 [cm-1]
 **************************************************************************

     Mode symmetry, C_6v (6mm)  point group:

     freq (   1-   2) =        143.5  [cm-1]   --> E_1                
     freq (   3-   3) =        175.6  [cm-1]   --> A_1                
     freq (   4-   5) =        412.1  [cm-1]   --> E_1                
     freq (   6-   6) =        527.1  [cm-1]   --> A_1                
     freq (   7-   7) =        530.4  [cm-1]   --> B_1                
     freq (   8-   9) =        750.9  [cm-1]   --> E_2                
 
     init_run     :      0.12s CPU      0.12s WALL (       1 calls)
     electrons    :     98.87s CPU    101.59s WALL (       1 calls)

     Called by init_run:
     wfcinit      :      0.00s CPU      0.00s WALL (       1 calls)
     potinit      :      0.02s CPU      0.02s WALL (       1 calls)
     hinit0       :      0.03s CPU      0.03s WALL (       1 calls)

     Called by electrons:
     c_bands      :     98.83s CPU    101.54s WALL (       1 calls)
     v_of_rho     :      0.03s CPU      0.03s WALL (       2 calls)

     Called by c_bands:
     init_us_2    :      4.34s CPU      4.55s WALL (   41292 calls)
     init_us_2:cp :      4.22s CPU      4.43s WALL (   41292 calls)
     cegterg      :     93.35s CPU     95.88s WALL (    1930 calls)

     Called by *egterg:
     cdiaghg      :     34.63s CPU     35.47s WALL (   30236 calls)
     h_psi        :    667.72s CPU    700.24s WALL (  786229 calls)
     g_psi        :      0.23s CPU      0.24s WALL (   28904 calls)

     Called by h_psi:
     h_psi:calbec :     39.61s CPU     41.52s WALL (  786229 calls)
     vloc_psi     :    585.51s CPU    614.04s WALL (  786229 calls)
     add_vuspsi   :     34.00s CPU     35.83s WALL (  786229 calls)

     General routines
     calbec       :     70.42s CPU     73.91s WALL ( 1570928 calls)
     fft          :      0.40s CPU      0.43s WALL (     832 calls)
     ffts         :      0.67s CPU      0.69s WALL (    6174 calls)
     fftw         :    621.35s CPU    652.92s WALL (11885384 calls)
     interpolate  :      0.10s CPU      0.10s WALL (     126 calls)
 
     Parallel routines
 
     PHONON       :  16m 4.67s CPU  16m51.03s WALL

     INITIALIZATION: 
     phq_setup    :      0.03s CPU      0.03s WALL (       1 calls)
     phq_init     :      3.33s CPU      3.34s WALL (       1 calls)
 
     phq_init     :      3.33s CPU      3.34s WALL (       1 calls)
     init_vloc    :      0.03s CPU      0.03s WALL (       2 calls)
     init_us_1    :      0.02s CPU      0.03s WALL (       2 calls)
     init_us_2    :      4.34s CPU      4.55s WALL (   41292 calls)
 
     DYNAMICAL MATRIX:
     dynmat0      :      2.88s CPU      2.88s WALL (       1 calls)
     phqscf       :    861.83s CPU    905.31s WALL (       1 calls)
     dynmatrix    :      0.00s CPU      0.00s WALL (       1 calls)
 
     phqscf       :    861.83s CPU    905.31s WALL (       1 calls)
     solve_linter :    858.07s CPU    901.47s WALL (       6 calls)
     drhodv       :      3.76s CPU      3.84s WALL (       6 calls)
 
     dynmat0      :      2.88s CPU      2.88s WALL (       1 calls)
     dynmat_us    :      2.87s CPU      2.88s WALL (       1 calls)
     d2ionq       :      0.00s CPU      0.00s WALL (       1 calls)
 
     dynmat_us    :      2.87s CPU      2.88s WALL (       1 calls)
 
     phqscf       :    861.83s CPU    905.31s WALL (       1 calls)
     solve_linter :    858.07s CPU    901.47s WALL (       6 calls)
 
     solve_linter :    858.07s CPU    901.47s WALL (       6 calls)
     dvqpsi_us    :     23.16s CPU     23.78s WALL (    5994 calls)
     sth_kernel   :    827.91s CPU    870.61s WALL (      46 calls)
     apply_dpot_b :     45.62s CPU     48.28s WALL (   35298 calls)
     ortho        :      4.83s CPU      5.11s WALL (   41292 calls)
     cgsolve      :    715.86s CPU    751.87s WALL (   41292 calls)
     incdrhoscf   :     51.11s CPU     54.25s WALL (   41292 calls)
     dv_of_drho   :      0.79s CPU      0.80s WALL (      62 calls)
     mix_pot      :      0.18s CPU      0.19s WALL (      46 calls)
     psymdvscf    :      5.38s CPU      5.41s WALL (      46 calls)
 
     dvqpsi_us    :     23.16s CPU     23.78s WALL (    5994 calls)
     dvqpsi_us_on :      7.96s CPU      8.16s WALL (    5994 calls)
 
     cgsolve      :    715.86s CPU    751.87s WALL (   41292 calls)
     ch_psi       :    694.34s CPU    729.08s WALL (  754063 calls)
 
     ch_psi       :    694.34s CPU    729.08s WALL (  754063 calls)
     h_psi        :    667.72s CPU    700.24s WALL (  786229 calls)
     last         :     64.46s CPU     67.72s WALL (  754063 calls)
 
     h_psi        :    667.72s CPU    700.24s WALL (  786229 calls)
     add_vuspsi   :     34.00s CPU     35.83s WALL (  786229 calls)
 
     incdrhoscf   :     51.11s CPU     54.25s WALL (   41292 calls)
 
 
      General routines
     calbec       :     70.42s CPU     73.91s WALL ( 1570928 calls)
     fft          :      0.40s CPU      0.43s WALL (     832 calls)
     ffts         :      0.67s CPU      0.69s WALL (    6174 calls)
     fftw         :    621.35s CPU    652.92s WALL (11885384 calls)
 
 
     PHONON       :  16m 4.67s CPU  16m51.03s WALL

 
   This run was terminated on:   4:54:14  31May2022            

=------------------------------------------------------------------------------=
   JOB DONE.
=------------------------------------------------------------------------------=
