
     Program PHONON v.7.0 starts on 31May2022 at  5:45:21 

     This program is part of the open-source Quantum ESPRESSO suite
     for quantum simulation of materials; please cite
         "P. Giannozzi et al., J. Phys.:Condens. Matter 21 395502 (2009);
         "P. Giannozzi et al., J. Phys.:Condens. Matter 29 465901 (2017);
         "P. Giannozzi et al., J. Chem. Phys. 152 154105 (2020);
          URL http://www.quantum-espresso.org", 
     in publications or presentations arising from this work. More details at
     http://www.quantum-espresso.org/quote

     Parallel version (MPI), running on     8 processors

     MPI processes distributed on     1 nodes
     R & G space division:  proc/nbgrp/npool/nimage =       8
     5301 MiB available memory on the printing compute node when the environment starts
 
     Reading input from mob2_fonon_04.in

     Reading xml data from directory:

     ./tmp/mob2.save/

     IMPORTANT: XC functional enforced from input :
     Exchange-correlation= PBE
                           (   1   4   3   4   0   0   0)
     Any further DFT definition will be discarded
     Please, verify this is what you really want

 
     Parallelization info
     --------------------
     sticks:   dense  smooth     PW     G-vecs:    dense   smooth      PW
     Min         185      52     15                 6053      930     163
     Max         186      53     16                 6056      935     166
     Sum        1483     421    127                48439     7467    1317
 
     Using Slab Decomposition
 
     Reading collected, re-writing distributed wavefunctions


     Dynamical matrices for ( 3, 3, 3)  uniform grid of q-points
     (   6 q-points):
       N         xq(1)         xq(2)         xq(3) 
       1   0.000000000   0.000000000   0.000000000
       2   0.000000000   0.000000000   0.311376641
       3   0.000000000   0.384900179   0.000000000
       4   0.000000000   0.384900179   0.311376641
       5   0.333333333   0.577350269   0.000000000
       6   0.333333333   0.577350269   0.311376641

     Calculation of q =    0.0000000   0.3849002   0.3113766

     Subspace diagonalization in iterative solution of the eigenvalue problem:
     a serial algorithm will be used

 
     Parallelization info
     --------------------
     sticks:   dense  smooth     PW     G-vecs:    dense   smooth      PW
     Min         185      52     18                 6053      930     200
     Max         186      53     19                 6056      935     203
     Sum        1483     421    151                48439     7467    1617
 
     Using Slab Decomposition
 

     Title: 
     Phonon calc for qp04                                                       


     bravais-lattice index     =            4
     lattice parameter (alat)  =       5.8733  a.u.
     unit-cell volume          =     187.8355 (a.u.)^3
     number of atoms/cell      =            3
     number of atomic types    =            2
     number of electrons       =        19.00
     number of Kohn-Sham states=           20
     kinetic-energy cutoff     =      44.0000  Ry
     charge density cutoff     =     616.0000  Ry
     Exchange-correlation= PBE
                           (   1   4   3   4   0   0   0)

     celldm(1)=   5.873335  celldm(2)=   0.000000  celldm(3)=   1.070515
     celldm(4)=   0.000000  celldm(5)=   0.000000  celldm(6)=   0.000000

     crystal axes: (cart. coord. in units of alat)
               a(1) = (   1.000000   0.000000   0.000000 )  
               a(2) = (  -0.500000   0.866025   0.000000 )  
               a(3) = (   0.000000   0.000000   1.070515 )  

     reciprocal axes: (cart. coord. in units 2 pi/alat)
               b(1) = (  1.000000  0.577350  0.000000 )  
               b(2) = (  0.000000  1.154701  0.000000 )  
               b(3) = (  0.000000  0.000000  0.934130 )  


     PseudoPot. # 1 for Xx read from file:
     /home/marcocarmonaga/Apps/qe-7.0/pseudo/Nb1.00Mo0.00.upf
     MD5 check sum: e4b562b21cfca1bf7e2ab47e57cae993
     Pseudo is Norm-conserving, Zval = 13.0
     Generated using virtual.x code
     Using radial grid of  602 points, 12 beta functions with: 
                l(1) =   0
                l(2) =   0
                l(3) =   1
                l(4) =   1
                l(5) =   2
                l(6) =   2
                l(7) =   0
                l(8) =   0
                l(9) =   1
               l(10) =   1
               l(11) =   2
               l(12) =   2

     PseudoPot. # 2 for B  read from file:
     /home/marcocarmonaga/Apps/qe-7.0/pseudo/B_ONCV_PBE-1.2.upf
     MD5 check sum: eb3cbeacc2d324d57d903df00f564d27
     Pseudo is Norm-conserving, Zval =  3.0
     Generated using ONCVPSP code by D. R. Hamann
     Using radial grid of  602 points,  4 beta functions with: 
                l(1) =   0
                l(2) =   0
                l(3) =   1
                l(4) =   1

     atomic species   valence    mass     pseudopotential
        Mo            13.00    92.90600     Xx( 1.00)
        B              3.00    10.81000     B ( 1.00)

     24 Sym. Ops., with inversion, found



   Cartesian axes

     site n.     atom                  positions (alat units)
         1           Mo  tau(   1) = (   0.0000000   0.0000000   0.0000000  )
         2           B   tau(   2) = (   0.5000000   0.2886751   0.5352574  )
         3           B   tau(   3) = (   0.0000000   0.5773503   0.5352574  )

     number of k points=  6156  Gaussian smearing, width (Ry)=  0.0150

     Number of k-points >= 100: set verbosity='high' to print them.

     Dense  grid:    48439 G-vectors     FFT dimensions: (  48,  48,  50)

     Smooth grid:     7467 G-vectors     FFT dimensions: (  25,  25,  27)

     Estimated max dynamical RAM per process >     233.97 MB

     Estimated total dynamical RAM >       1.83 GB

     The potential is recalculated from file :
     ./tmp/_ph0/mob2.save/charge-density

     Starting wfcs are    0 atomic +   20 random wfcs

     Band Structure Calculation
     Davidson diagonalization with overlap

     ethr =  5.26E-11,  avg # of iterations = 21.9

     total cpu time spent up to now is      473.8 secs

     End of band structure calculation

     Number of k-points >= 100: set verbosity='high' to print the bands.

     the Fermi energy is    18.4723 ev

     Phonon calc for qp04                                                       

     bravais-lattice index     =            4
     lattice parameter (alat)  =       5.8733  a.u.
     unit-cell volume          =     187.8355 (a.u.)^3
     number of atoms/cell      =            3
     number of atomic types    =            2
     kinetic-energy cut-off    =      44.0000  Ry
     charge density cut-off    =     616.0000  Ry
     convergence threshold     =      1.0E-14
     beta                      =       0.7000
     number of iterations used =            4
     Exchange-correlation= PBE
                           (   1   4   3   4   0   0   0)


     celldm(1)=    5.87334  celldm(2)=    0.00000  celldm(3)=    1.07051
     celldm(4)=    0.00000  celldm(5)=    0.00000  celldm(6)=    0.00000

     crystal axes: (cart. coord. in units of alat)
               a(1) = (  1.0000  0.0000  0.0000 )  
               a(2) = ( -0.5000  0.8660  0.0000 )  
               a(3) = (  0.0000  0.0000  1.0705 )  

     reciprocal axes: (cart. coord. in units 2 pi/alat)
               b(1) = (  1.0000  0.5774  0.0000 )  
               b(2) = (  0.0000  1.1547  0.0000 )  
               b(3) = (  0.0000  0.0000  0.9341 )  


     Atoms inside the unit cell: 

     Cartesian axes

     site n.  atom      mass           positions (alat units)
        1     Mo  92.9060   tau(    1) = (    0.00000    0.00000    0.00000  )
        2     B   10.8100   tau(    2) = (    0.50000    0.28868    0.53526  )
        3     B   10.8100   tau(    3) = (    0.00000    0.57735    0.53526  )

     Computing dynamical matrix for 
                    q = (   0.0000000   0.3849002   0.3113766 )
 
      2 Sym.Ops. (no q -> -q+G )


     G cutoff =  538.2580  (   6055 G-vectors)     FFT grid: ( 48, 48, 50)
     G cutoff =  153.7880  (    932 G-vectors)  smooth grid: ( 25, 25, 27)

     number of k points=  6156  Gaussian smearing, width (Ry)=  0.0150

     PseudoPot. # 1 for Xx read from file:
     /home/marcocarmonaga/Apps/qe-7.0/pseudo/Nb1.00Mo0.00.upf
     MD5 check sum: e4b562b21cfca1bf7e2ab47e57cae993
     Pseudo is Norm-conserving, Zval = 13.0
     Generated using virtual.x code
     Using radial grid of  602 points, 12 beta functions with: 
                l(1) =   0
                l(2) =   0
                l(3) =   1
                l(4) =   1
                l(5) =   2
                l(6) =   2
                l(7) =   0
                l(8) =   0
                l(9) =   1
               l(10) =   1
               l(11) =   2
               l(12) =   2

     PseudoPot. # 2 for B  read from file:
     /home/marcocarmonaga/Apps/qe-7.0/pseudo/B_ONCV_PBE-1.2.upf
     MD5 check sum: eb3cbeacc2d324d57d903df00f564d27
     Pseudo is Norm-conserving, Zval =  3.0
     Generated using ONCVPSP code by D. R. Hamann
     Using radial grid of  602 points,  4 beta functions with: 
                l(1) =   0
                l(2) =   0
                l(3) =   1
                l(4) =   1

     Mode symmetry, C_s (m)     point group:


     Atomic displacements:
     There are    9 irreducible representations

     Representation     1      1 modes -  To be done

     Representation     2      1 modes -  To be done

     Representation     3      1 modes -  To be done

     Representation     4      1 modes -  To be done

     Representation     5      1 modes -  To be done

     Representation     6      1 modes -  To be done

     Representation     7      1 modes -  To be done

     Representation     8      1 modes -  To be done

     Representation     9      1 modes -  To be done



     Alpha used in Ewald sum =   2.8000
     PHONON       :   7m57.43s CPU   8m 9.64s WALL



     Representation #   1 mode #   1

     Self-consistent Calculation

      iter #   1 total cpu time :   545.8 secs   av.it.:   7.1
      thresh= 1.000E-02 alpha_mix =  0.700 |ddv_scf|^2 =  1.706E-05

      iter #   2 total cpu time :   623.0 secs   av.it.:  12.9
      thresh= 4.131E-04 alpha_mix =  0.700 |ddv_scf|^2 =  3.017E-04

      iter #   3 total cpu time :   688.1 secs   av.it.:  10.5
      thresh= 1.737E-03 alpha_mix =  0.700 |ddv_scf|^2 =  4.588E-06

      iter #   4 total cpu time :   758.4 secs   av.it.:  11.5
      thresh= 2.142E-04 alpha_mix =  0.700 |ddv_scf|^2 =  1.077E-07

      iter #   5 total cpu time :   831.5 secs   av.it.:  12.1
      thresh= 3.282E-05 alpha_mix =  0.700 |ddv_scf|^2 =  4.958E-09

      iter #   6 total cpu time :   904.4 secs   av.it.:  12.1
      thresh= 7.042E-06 alpha_mix =  0.700 |ddv_scf|^2 =  7.992E-11

      iter #   7 total cpu time :   981.0 secs   av.it.:  12.8
      thresh= 8.940E-07 alpha_mix =  0.700 |ddv_scf|^2 =  1.301E-11

      iter #   8 total cpu time :  1071.2 secs   av.it.:  12.7
      thresh= 3.607E-07 alpha_mix =  0.700 |ddv_scf|^2 =  1.265E-11

      iter #   9 total cpu time :  1143.2 secs   av.it.:  11.8
      thresh= 3.557E-07 alpha_mix =  0.700 |ddv_scf|^2 =  2.059E-11

      iter #  10 total cpu time :  1214.8 secs   av.it.:  11.4
      thresh= 4.538E-07 alpha_mix =  0.700 |ddv_scf|^2 =  5.777E-12

      iter #  11 total cpu time :  1284.8 secs   av.it.:  11.5
      thresh= 2.404E-07 alpha_mix =  0.700 |ddv_scf|^2 =  7.634E-13

      iter #  12 total cpu time :  1356.1 secs   av.it.:  11.7
      thresh= 8.737E-08 alpha_mix =  0.700 |ddv_scf|^2 =  6.731E-13

      iter #  13 total cpu time :  1422.9 secs   av.it.:  10.8
      thresh= 8.204E-08 alpha_mix =  0.700 |ddv_scf|^2 =  4.647E-14

      iter #  14 total cpu time :  1494.2 secs   av.it.:  11.8
      thresh= 2.156E-08 alpha_mix =  0.700 |ddv_scf|^2 =  3.428E-15

     End of self-consistent calculation

     Convergence has been achieved 


     Representation #   2 mode #   2

     Self-consistent Calculation

      iter #   1 total cpu time :  1564.1 secs   av.it.:   9.0
      thresh= 1.000E-02 alpha_mix =  0.700 |ddv_scf|^2 =  2.539E-04

      iter #   2 total cpu time :  1640.8 secs   av.it.:  12.8
      thresh= 1.593E-03 alpha_mix =  0.700 |ddv_scf|^2 =  3.839E-03

      iter #   3 total cpu time :  1706.2 secs   av.it.:  10.5
      thresh= 6.196E-03 alpha_mix =  0.700 |ddv_scf|^2 =  1.147E-04

      iter #   4 total cpu time :  1775.1 secs   av.it.:  11.3
      thresh= 1.071E-03 alpha_mix =  0.700 |ddv_scf|^2 =  1.924E-06

      iter #   5 total cpu time :  1847.2 secs   av.it.:  11.9
      thresh= 1.387E-04 alpha_mix =  0.700 |ddv_scf|^2 =  5.506E-08

      iter #   6 total cpu time :  1920.2 secs   av.it.:  12.1
      thresh= 2.346E-05 alpha_mix =  0.700 |ddv_scf|^2 =  1.466E-09

      iter #   7 total cpu time :  1993.8 secs   av.it.:  12.3
      thresh= 3.829E-06 alpha_mix =  0.700 |ddv_scf|^2 =  2.079E-11

      iter #   8 total cpu time :  2070.8 secs   av.it.:  12.9
      thresh= 4.560E-07 alpha_mix =  0.700 |ddv_scf|^2 =  3.062E-11

      iter #   9 total cpu time :  2140.2 secs   av.it.:  11.3
      thresh= 5.534E-07 alpha_mix =  0.700 |ddv_scf|^2 =  2.050E-11

      iter #  10 total cpu time :  2209.6 secs   av.it.:  11.3
      thresh= 4.527E-07 alpha_mix =  0.700 |ddv_scf|^2 =  5.671E-12

      iter #  11 total cpu time :  2278.3 secs   av.it.:  11.2
      thresh= 2.381E-07 alpha_mix =  0.700 |ddv_scf|^2 =  1.121E-12

      iter #  12 total cpu time :  2350.9 secs   av.it.:  12.0
      thresh= 1.059E-07 alpha_mix =  0.700 |ddv_scf|^2 =  3.450E-13

      iter #  13 total cpu time :  2420.1 secs   av.it.:  11.4
      thresh= 5.874E-08 alpha_mix =  0.700 |ddv_scf|^2 =  7.022E-15

     End of self-consistent calculation

     Convergence has been achieved 


     Representation #   3 mode #   3

     Self-consistent Calculation

      iter #   1 total cpu time :  2476.5 secs   av.it.:   6.9
      thresh= 1.000E-02 alpha_mix =  0.700 |ddv_scf|^2 =  1.899E-05

      iter #   2 total cpu time :  2553.6 secs   av.it.:  12.8
      thresh= 4.358E-04 alpha_mix =  0.700 |ddv_scf|^2 =  4.229E-04

      iter #   3 total cpu time :  2618.4 secs   av.it.:  10.4
      thresh= 2.056E-03 alpha_mix =  0.700 |ddv_scf|^2 =  9.658E-07

      iter #   4 total cpu time :  2689.7 secs   av.it.:  11.7
      thresh= 9.827E-05 alpha_mix =  0.700 |ddv_scf|^2 =  2.238E-08

      iter #   5 total cpu time :  2763.9 secs   av.it.:  12.3
      thresh= 1.496E-05 alpha_mix =  0.700 |ddv_scf|^2 =  9.595E-09

      iter #   6 total cpu time :  2835.5 secs   av.it.:  11.8
      thresh= 9.795E-06 alpha_mix =  0.700 |ddv_scf|^2 =  2.160E-10

      iter #   7 total cpu time :  2909.7 secs   av.it.:  12.3
      thresh= 1.470E-06 alpha_mix =  0.700 |ddv_scf|^2 =  3.365E-11

      iter #   8 total cpu time :  2983.3 secs   av.it.:  12.2
      thresh= 5.801E-07 alpha_mix =  0.700 |ddv_scf|^2 =  6.151E-12

      iter #   9 total cpu time :  3059.9 secs   av.it.:  12.8
      thresh= 2.480E-07 alpha_mix =  0.700 |ddv_scf|^2 =  2.902E-11

      iter #  10 total cpu time :  3128.3 secs   av.it.:  11.1
      thresh= 5.387E-07 alpha_mix =  0.700 |ddv_scf|^2 =  5.696E-12

      iter #  11 total cpu time :  3197.1 secs   av.it.:  11.2
      thresh= 2.387E-07 alpha_mix =  0.700 |ddv_scf|^2 =  2.172E-12

      iter #  12 total cpu time :  3267.2 secs   av.it.:  11.6
      thresh= 1.474E-07 alpha_mix =  0.700 |ddv_scf|^2 =  8.949E-14

      iter #  13 total cpu time :  3341.4 secs   av.it.:  12.3
      thresh= 2.992E-08 alpha_mix =  0.700 |ddv_scf|^2 =  1.449E-14

      iter #  14 total cpu time :  3417.9 secs   av.it.:  12.1
      thresh= 1.204E-08 alpha_mix =  0.700 |ddv_scf|^2 =  1.134E-15

     End of self-consistent calculation

     Convergence has been achieved 


     Representation #   4 mode #   4

     Self-consistent Calculation

      iter #   1 total cpu time :  3474.4 secs   av.it.:   6.9
      thresh= 1.000E-02 alpha_mix =  0.700 |ddv_scf|^2 =  2.040E-05

      iter #   2 total cpu time :  3551.6 secs   av.it.:  12.9
      thresh= 4.517E-04 alpha_mix =  0.700 |ddv_scf|^2 =  4.599E-04

      iter #   3 total cpu time :  3616.5 secs   av.it.:  10.4
      thresh= 2.144E-03 alpha_mix =  0.700 |ddv_scf|^2 =  8.631E-07

      iter #   4 total cpu time :  3687.9 secs   av.it.:  11.8
      thresh= 9.290E-05 alpha_mix =  0.700 |ddv_scf|^2 =  2.067E-08

      iter #   5 total cpu time :  3762.1 secs   av.it.:  12.3
      thresh= 1.438E-05 alpha_mix =  0.700 |ddv_scf|^2 =  9.114E-09

      iter #   6 total cpu time :  3833.6 secs   av.it.:  11.8
      thresh= 9.547E-06 alpha_mix =  0.700 |ddv_scf|^2 =  2.030E-10

      iter #   7 total cpu time :  3907.8 secs   av.it.:  12.3
      thresh= 1.425E-06 alpha_mix =  0.700 |ddv_scf|^2 =  3.270E-11

      iter #   8 total cpu time :  3981.3 secs   av.it.:  12.2
      thresh= 5.718E-07 alpha_mix =  0.700 |ddv_scf|^2 =  6.465E-12

      iter #   9 total cpu time :  4058.5 secs   av.it.:  12.9
      thresh= 2.543E-07 alpha_mix =  0.700 |ddv_scf|^2 =  2.925E-11

      iter #  10 total cpu time :  4126.4 secs   av.it.:  11.0
      thresh= 5.408E-07 alpha_mix =  0.700 |ddv_scf|^2 =  6.067E-12

      iter #  11 total cpu time :  4195.5 secs   av.it.:  11.2
      thresh= 2.463E-07 alpha_mix =  0.700 |ddv_scf|^2 =  3.109E-12

      iter #  12 total cpu time :  4265.3 secs   av.it.:  11.4
      thresh= 1.763E-07 alpha_mix =  0.700 |ddv_scf|^2 =  1.759E-13

      iter #  13 total cpu time :  4338.1 secs   av.it.:  12.0
      thresh= 4.194E-08 alpha_mix =  0.700 |ddv_scf|^2 =  1.724E-14

      iter #  14 total cpu time :  4410.3 secs   av.it.:  11.9
      thresh= 1.313E-08 alpha_mix =  0.700 |ddv_scf|^2 =  1.400E-15

     End of self-consistent calculation

     Convergence has been achieved 


     Representation #   5 mode #   5

     Self-consistent Calculation

      iter #   1 total cpu time :  4481.0 secs   av.it.:   9.2
      thresh= 1.000E-02 alpha_mix =  0.700 |ddv_scf|^2 =  3.554E-04

      iter #   2 total cpu time :  4558.2 secs   av.it.:  12.9
      thresh= 1.885E-03 alpha_mix =  0.700 |ddv_scf|^2 =  6.582E-03

      iter #   3 total cpu time :  4624.3 secs   av.it.:  10.5
      thresh= 8.113E-03 alpha_mix =  0.700 |ddv_scf|^2 =  6.903E-05

      iter #   4 total cpu time :  4694.6 secs   av.it.:  11.6
      thresh= 8.308E-04 alpha_mix =  0.700 |ddv_scf|^2 =  2.661E-06

      iter #   5 total cpu time :  4765.7 secs   av.it.:  11.7
      thresh= 1.631E-04 alpha_mix =  0.700 |ddv_scf|^2 =  5.072E-08

      iter #   6 total cpu time :  4838.0 secs   av.it.:  11.9
      thresh= 2.252E-05 alpha_mix =  0.700 |ddv_scf|^2 =  4.024E-09

      iter #   7 total cpu time :  4910.9 secs   av.it.:  12.0
      thresh= 6.344E-06 alpha_mix =  0.700 |ddv_scf|^2 =  1.283E-10

      iter #   8 total cpu time :  4982.8 secs   av.it.:  11.8
      thresh= 1.133E-06 alpha_mix =  0.700 |ddv_scf|^2 =  9.169E-12

      iter #   9 total cpu time :  5057.0 secs   av.it.:  12.4
      thresh= 3.028E-07 alpha_mix =  0.700 |ddv_scf|^2 =  7.826E-12

      iter #  10 total cpu time :  5128.9 secs   av.it.:  11.8
      thresh= 2.797E-07 alpha_mix =  0.700 |ddv_scf|^2 =  8.930E-12

      iter #  11 total cpu time :  5198.2 secs   av.it.:  11.3
      thresh= 2.988E-07 alpha_mix =  0.700 |ddv_scf|^2 =  2.859E-12

      iter #  12 total cpu time :  5267.2 secs   av.it.:  11.3
      thresh= 1.691E-07 alpha_mix =  0.700 |ddv_scf|^2 =  1.023E-13

      iter #  13 total cpu time :  5343.4 secs   av.it.:  12.7
      thresh= 3.199E-08 alpha_mix =  0.700 |ddv_scf|^2 =  1.828E-13

      iter #  14 total cpu time :  5412.0 secs   av.it.:  11.2
      thresh= 4.275E-08 alpha_mix =  0.700 |ddv_scf|^2 =  2.542E-15

     End of self-consistent calculation

     Convergence has been achieved 


     Representation #   6 mode #   6

     Self-consistent Calculation

      iter #   1 total cpu time :  5469.1 secs   av.it.:   7.0
      thresh= 1.000E-02 alpha_mix =  0.700 |ddv_scf|^2 =  1.847E-05

      iter #   2 total cpu time :  5546.3 secs   av.it.:  12.8
      thresh= 4.298E-04 alpha_mix =  0.700 |ddv_scf|^2 =  3.386E-04

      iter #   3 total cpu time :  5611.5 secs   av.it.:  10.5
      thresh= 1.840E-03 alpha_mix =  0.700 |ddv_scf|^2 =  4.377E-06

      iter #   4 total cpu time :  5682.0 secs   av.it.:  11.6
      thresh= 2.092E-04 alpha_mix =  0.700 |ddv_scf|^2 =  9.099E-08

      iter #   5 total cpu time :  5755.5 secs   av.it.:  12.1
      thresh= 3.016E-05 alpha_mix =  0.700 |ddv_scf|^2 =  5.651E-09

      iter #   6 total cpu time :  5828.5 secs   av.it.:  12.0
      thresh= 7.517E-06 alpha_mix =  0.700 |ddv_scf|^2 =  1.666E-10

      iter #   7 total cpu time :  5903.5 secs   av.it.:  12.5
      thresh= 1.291E-06 alpha_mix =  0.700 |ddv_scf|^2 =  2.129E-11

      iter #   8 total cpu time :  5978.7 secs   av.it.:  12.6
      thresh= 4.615E-07 alpha_mix =  0.700 |ddv_scf|^2 =  1.648E-11

      iter #   9 total cpu time :  6050.7 secs   av.it.:  11.8
      thresh= 4.059E-07 alpha_mix =  0.700 |ddv_scf|^2 =  2.195E-11

      iter #  10 total cpu time :  6121.1 secs   av.it.:  11.5
      thresh= 4.686E-07 alpha_mix =  0.700 |ddv_scf|^2 =  8.377E-12

      iter #  11 total cpu time :  6191.2 secs   av.it.:  11.5
      thresh= 2.894E-07 alpha_mix =  0.700 |ddv_scf|^2 =  4.184E-13

      iter #  12 total cpu time :  6266.5 secs   av.it.:  12.5
      thresh= 6.468E-08 alpha_mix =  0.700 |ddv_scf|^2 =  8.303E-13

      iter #  13 total cpu time :  6333.2 secs   av.it.:  10.8
      thresh= 9.112E-08 alpha_mix =  0.700 |ddv_scf|^2 =  5.775E-14

      iter #  14 total cpu time :  6404.7 secs   av.it.:  11.8
      thresh= 2.403E-08 alpha_mix =  0.700 |ddv_scf|^2 =  4.624E-15

     End of self-consistent calculation

     Convergence has been achieved 


     Representation #   7 mode #   7

     Self-consistent Calculation

      iter #   1 total cpu time :  6457.1 secs   av.it.:   6.2
      thresh= 1.000E-02 alpha_mix =  0.700 |ddv_scf|^2 =  3.018E-07

      iter #   2 total cpu time :  6532.3 secs   av.it.:  12.5
      thresh= 5.493E-05 alpha_mix =  0.700 |ddv_scf|^2 =  2.311E-08

      iter #   3 total cpu time :  6607.1 secs   av.it.:  12.5
      thresh= 1.520E-05 alpha_mix =  0.700 |ddv_scf|^2 =  5.359E-10

      iter #   4 total cpu time :  6680.0 secs   av.it.:  12.2
      thresh= 2.315E-06 alpha_mix =  0.700 |ddv_scf|^2 =  3.533E-11

      iter #   5 total cpu time :  6753.0 secs   av.it.:  12.2
      thresh= 5.944E-07 alpha_mix =  0.700 |ddv_scf|^2 =  1.085E-13

      iter #   6 total cpu time :  6830.0 secs   av.it.:  12.9
      thresh= 3.293E-08 alpha_mix =  0.700 |ddv_scf|^2 =  5.449E-16

     End of self-consistent calculation

     Convergence has been achieved 


     Representation #   8 mode #   8

     Self-consistent Calculation

      iter #   1 total cpu time :  6882.4 secs   av.it.:   6.2
      thresh= 1.000E-02 alpha_mix =  0.700 |ddv_scf|^2 =  3.018E-07

      iter #   2 total cpu time :  6957.6 secs   av.it.:  12.5
      thresh= 5.493E-05 alpha_mix =  0.700 |ddv_scf|^2 =  2.311E-08

      iter #   3 total cpu time :  7032.4 secs   av.it.:  12.5
      thresh= 1.520E-05 alpha_mix =  0.700 |ddv_scf|^2 =  5.359E-10

      iter #   4 total cpu time :  7105.2 secs   av.it.:  12.2
      thresh= 2.315E-06 alpha_mix =  0.700 |ddv_scf|^2 =  3.533E-11

      iter #   5 total cpu time :  7178.2 secs   av.it.:  12.2
      thresh= 5.944E-07 alpha_mix =  0.700 |ddv_scf|^2 =  1.085E-13

      iter #   6 total cpu time :  7255.1 secs   av.it.:  12.9
      thresh= 3.293E-08 alpha_mix =  0.700 |ddv_scf|^2 =  5.449E-16

     End of self-consistent calculation

     Convergence has been achieved 


     Representation #   9 mode #   9

     Self-consistent Calculation

      iter #   1 total cpu time :  7320.6 secs   av.it.:   8.2
      thresh= 1.000E-02 alpha_mix =  0.700 |ddv_scf|^2 =  8.844E-06

      iter #   2 total cpu time :  7395.2 secs   av.it.:  12.4
      thresh= 2.974E-04 alpha_mix =  0.700 |ddv_scf|^2 =  1.109E-06

      iter #   3 total cpu time :  7468.8 secs   av.it.:  12.3
      thresh= 1.053E-04 alpha_mix =  0.700 |ddv_scf|^2 =  1.557E-09

      iter #   4 total cpu time :  7543.9 secs   av.it.:  12.5
      thresh= 3.946E-06 alpha_mix =  0.700 |ddv_scf|^2 =  1.071E-10

      iter #   5 total cpu time :  7617.4 secs   av.it.:  12.3
      thresh= 1.035E-06 alpha_mix =  0.700 |ddv_scf|^2 =  5.918E-13

      iter #   6 total cpu time :  7691.6 secs   av.it.:  12.3
      thresh= 7.693E-08 alpha_mix =  0.700 |ddv_scf|^2 =  1.522E-14

      iter #   7 total cpu time :  7766.3 secs   av.it.:  12.5
      thresh= 1.234E-08 alpha_mix =  0.700 |ddv_scf|^2 =  2.061E-16

     End of self-consistent calculation

     Convergence has been achieved 
 
     Number of q in the star =   12
     List of q in the star:
          1   0.000000000   0.384900179   0.311376641
          2   0.333333333  -0.192450090   0.311376641
          3   0.000000000  -0.384900179   0.311376641
          4   0.333333333   0.192450090   0.311376641
          5  -0.333333333   0.192450090   0.311376641
          6   0.000000000   0.384900179  -0.311376641
          7   0.000000000  -0.384900179  -0.311376641
          8   0.333333333  -0.192450090  -0.311376641
          9  -0.333333333  -0.192450090  -0.311376641
         10  -0.333333333   0.192450090  -0.311376641
         11   0.333333333   0.192450090  -0.311376641
         12  -0.333333333  -0.192450090   0.311376641

     Diagonalizing the dynamical matrix

     q = (    0.000000000   0.384900179   0.311376641 ) 

 **************************************************************************
     freq (    1) =       5.192209 [THz] =     173.193446 [cm-1]
     freq (    2) =       5.546398 [THz] =     185.007909 [cm-1]
     freq (    3) =       6.791852 [THz] =     226.551787 [cm-1]
     freq (    4) =      14.009335 [THz] =     467.301119 [cm-1]
     freq (    5) =      15.199820 [THz] =     507.011406 [cm-1]
     freq (    6) =      16.502275 [THz] =     550.456636 [cm-1]
     freq (    7) =      17.848271 [THz] =     595.354220 [cm-1]
     freq (    8) =      22.385164 [THz] =     746.688710 [cm-1]
     freq (    9) =      22.982219 [THz] =     766.604319 [cm-1]
 **************************************************************************

     Mode symmetry, C_s (m)     point group:

     freq (   1-   1) =        173.2  [cm-1]   --> A'                 
     freq (   2-   2) =        185.0  [cm-1]   --> A''                
     freq (   3-   3) =        226.6  [cm-1]   --> A'                 
     freq (   4-   4) =        467.3  [cm-1]   --> A''                
     freq (   5-   5) =        507.0  [cm-1]   --> A'                 
     freq (   6-   6) =        550.5  [cm-1]   --> A'                 
     freq (   7-   7) =        595.4  [cm-1]   --> A'                 
     freq (   8-   8) =        746.7  [cm-1]   --> A''                
     freq (   9-   9) =        766.6  [cm-1]   --> A'                 
 
     init_run     :      0.18s CPU      0.19s WALL (       1 calls)
     electrons    :    461.70s CPU    473.65s WALL (       1 calls)

     Called by init_run:
     wfcinit      :      0.00s CPU      0.00s WALL (       1 calls)
     potinit      :      0.02s CPU      0.02s WALL (       1 calls)
     hinit0       :      0.03s CPU      0.03s WALL (       1 calls)

     Called by electrons:
     c_bands      :    461.46s CPU    473.42s WALL (       1 calls)
     v_of_rho     :      0.03s CPU      0.03s WALL (       2 calls)

     Called by c_bands:
     init_us_2    :     43.52s CPU     45.70s WALL (  381672 calls)
     init_us_2:cp :     42.40s CPU     44.69s WALL (  381672 calls)
     cegterg      :    435.28s CPU    446.48s WALL (    8948 calls)

     Called by *egterg:
     cdiaghg      :    160.52s CPU    164.22s WALL (  140879 calls)
     h_psi        :   5328.66s CPU   5589.44s WALL ( 6348222 calls)
     g_psi        :      1.22s CPU      1.26s WALL (  134723 calls)

     Called by h_psi:
     h_psi:calbec :    318.99s CPU    334.58s WALL ( 6348222 calls)
     vloc_psi     :   4653.38s CPU   4881.34s WALL ( 6348222 calls)
     add_vuspsi   :    286.34s CPU    301.33s WALL ( 6348222 calls)

     General routines
     calbec       :    556.30s CPU    584.07s WALL (12688205 calls)
     fft          :      0.68s CPU      0.73s WALL (    1352 calls)
     ffts         :      2.37s CPU      2.44s WALL (   27989 calls)
     fftw         :   4897.70s CPU   5145.76s WALL (91981284 calls)
     interpolate  :      0.17s CPU      0.18s WALL (     206 calls)
 
     Parallel routines
 
     PHONON       :      2h 3m CPU      2h 9m WALL

     INITIALIZATION: 
     phq_setup    :      0.03s CPU      0.03s WALL (       1 calls)
     phq_init     :     14.99s CPU     15.06s WALL (       1 calls)
 
     phq_init     :     14.99s CPU     15.06s WALL (       1 calls)
     init_vloc    :      0.03s CPU      0.03s WALL (       2 calls)
     init_us_1    :      0.02s CPU      0.03s WALL (       2 calls)
     init_us_2    :     43.52s CPU     45.70s WALL (  381672 calls)
 
     DYNAMICAL MATRIX:
     dynmat0      :     13.13s CPU     13.17s WALL (       1 calls)
     phqscf       :   6927.38s CPU   7278.88s WALL (       1 calls)
     dynmatrix    :      0.01s CPU      0.05s WALL (       1 calls)
 
     phqscf       :   6927.38s CPU   7278.88s WALL (       1 calls)
     solve_linter :   6907.68s CPU   7258.84s WALL (       9 calls)
     drhodv       :     19.70s CPU     20.01s WALL (       9 calls)
 
     dynmat0      :     13.13s CPU     13.17s WALL (       1 calls)
     dynmat_us    :     13.13s CPU     13.17s WALL (       1 calls)
     d2ionq       :      0.00s CPU      0.00s WALL (       1 calls)
 
     dynmat_us    :     13.13s CPU     13.17s WALL (       1 calls)
 
     phqscf       :   6927.38s CPU   7278.88s WALL (       1 calls)
     solve_linter :   6907.68s CPU   7258.84s WALL (       9 calls)
 
     solve_linter :   6907.68s CPU   7258.84s WALL (       9 calls)
     dvqpsi_us    :    105.28s CPU    108.55s WALL (   27702 calls)
     sth_kernel   :   6794.15s CPU   7141.77s WALL (     102 calls)
     apply_dpot_b :    375.42s CPU    396.62s WALL (  286254 calls)
     ortho        :     37.73s CPU     39.72s WALL (  313956 calls)
     cgsolve      :   5884.42s CPU   6178.21s WALL (  313956 calls)
     incdrhoscf   :    394.36s CPU    418.99s WALL (  313956 calls)
     dv_of_drho   :      1.38s CPU      1.42s WALL (     102 calls)
     mix_pot      :      0.35s CPU      0.43s WALL (     102 calls)
     psymdvscf    :      2.42s CPU      2.44s WALL (     102 calls)
 
     dvqpsi_us    :    105.28s CPU    108.55s WALL (   27702 calls)
     dvqpsi_us_on :     35.26s CPU     36.32s WALL (   27702 calls)
 
     cgsolve      :   5884.42s CPU   6178.21s WALL (  313956 calls)
     ch_psi       :   5703.37s CPU   5986.62s WALL ( 6198395 calls)
 
     ch_psi       :   5703.37s CPU   5986.62s WALL ( 6198395 calls)
     h_psi        :   5328.66s CPU   5589.44s WALL ( 6348222 calls)
     last         :    505.24s CPU    530.56s WALL ( 6198395 calls)
 
     h_psi        :   5328.66s CPU   5589.44s WALL ( 6348222 calls)
     add_vuspsi   :    286.34s CPU    301.33s WALL ( 6348222 calls)
 
     incdrhoscf   :    394.36s CPU    418.99s WALL (  313956 calls)
 
 
      General routines
     calbec       :    556.30s CPU    584.07s WALL (12688205 calls)
     fft          :      0.68s CPU      0.73s WALL (    1352 calls)
     ffts         :      2.37s CPU      2.44s WALL (   27989 calls)
     fftw         :   4897.70s CPU   5145.76s WALL (91981284 calls)
 
 
     PHONON       :      2h 3m CPU      2h 9m WALL

 
   This run was terminated on:   7:54:50  31May2022            

=------------------------------------------------------------------------------=
   JOB DONE.
=------------------------------------------------------------------------------=
