
     Program PHONON v.7.0 starts on 31May2022 at  4:54:14 

     This program is part of the open-source Quantum ESPRESSO suite
     for quantum simulation of materials; please cite
         "P. Giannozzi et al., J. Phys.:Condens. Matter 21 395502 (2009);
         "P. Giannozzi et al., J. Phys.:Condens. Matter 29 465901 (2017);
         "P. Giannozzi et al., J. Chem. Phys. 152 154105 (2020);
          URL http://www.quantum-espresso.org", 
     in publications or presentations arising from this work. More details at
     http://www.quantum-espresso.org/quote

     Parallel version (MPI), running on     8 processors

     MPI processes distributed on     1 nodes
     R & G space division:  proc/nbgrp/npool/nimage =       8
     5310 MiB available memory on the printing compute node when the environment starts
 
     Reading input from mob2_fonon_03.in

     Reading xml data from directory:

     ./tmp/mob2.save/

     IMPORTANT: XC functional enforced from input :
     Exchange-correlation= PBE
                           (   1   4   3   4   0   0   0)
     Any further DFT definition will be discarded
     Please, verify this is what you really want

 
     Parallelization info
     --------------------
     sticks:   dense  smooth     PW     G-vecs:    dense   smooth      PW
     Min         185      52     15                 6053      930     163
     Max         186      53     16                 6056      935     166
     Sum        1483     421    127                48439     7467    1317
 
     Using Slab Decomposition
 
     Reading collected, re-writing distributed wavefunctions


     Dynamical matrices for ( 3, 3, 3)  uniform grid of q-points
     (   6 q-points):
       N         xq(1)         xq(2)         xq(3) 
       1   0.000000000   0.000000000   0.000000000
       2   0.000000000   0.000000000   0.311376641
       3   0.000000000   0.384900179   0.000000000
       4   0.000000000   0.384900179   0.311376641
       5   0.333333333   0.577350269   0.000000000
       6   0.333333333   0.577350269   0.311376641

     Calculation of q =    0.0000000   0.3849002   0.0000000

     Subspace diagonalization in iterative solution of the eigenvalue problem:
     a serial algorithm will be used

 
     Parallelization info
     --------------------
     sticks:   dense  smooth     PW     G-vecs:    dense   smooth      PW
     Min         185      52     18                 6053      930     192
     Max         186      53     19                 6056      935     195
     Sum        1483     421    151                48439     7467    1545
 
     Using Slab Decomposition
 

     Title: 
     Phonon calc for qp03                                                       


     bravais-lattice index     =            4
     lattice parameter (alat)  =       5.8733  a.u.
     unit-cell volume          =     187.8355 (a.u.)^3
     number of atoms/cell      =            3
     number of atomic types    =            2
     number of electrons       =        19.00
     number of Kohn-Sham states=           20
     kinetic-energy cutoff     =      44.0000  Ry
     charge density cutoff     =     616.0000  Ry
     Exchange-correlation= PBE
                           (   1   4   3   4   0   0   0)

     celldm(1)=   5.873335  celldm(2)=   0.000000  celldm(3)=   1.070515
     celldm(4)=   0.000000  celldm(5)=   0.000000  celldm(6)=   0.000000

     crystal axes: (cart. coord. in units of alat)
               a(1) = (   1.000000   0.000000   0.000000 )  
               a(2) = (  -0.500000   0.866025   0.000000 )  
               a(3) = (   0.000000   0.000000   1.070515 )  

     reciprocal axes: (cart. coord. in units 2 pi/alat)
               b(1) = (  1.000000  0.577350  0.000000 )  
               b(2) = (  0.000000  1.154701  0.000000 )  
               b(3) = (  0.000000  0.000000  0.934130 )  


     PseudoPot. # 1 for Xx read from file:
     /home/marcocarmonaga/Apps/qe-7.0/pseudo/Nb1.00Mo0.00.upf
     MD5 check sum: e4b562b21cfca1bf7e2ab47e57cae993
     Pseudo is Norm-conserving, Zval = 13.0
     Generated using virtual.x code
     Using radial grid of  602 points, 12 beta functions with: 
                l(1) =   0
                l(2) =   0
                l(3) =   1
                l(4) =   1
                l(5) =   2
                l(6) =   2
                l(7) =   0
                l(8) =   0
                l(9) =   1
               l(10) =   1
               l(11) =   2
               l(12) =   2

     PseudoPot. # 2 for B  read from file:
     /home/marcocarmonaga/Apps/qe-7.0/pseudo/B_ONCV_PBE-1.2.upf
     MD5 check sum: eb3cbeacc2d324d57d903df00f564d27
     Pseudo is Norm-conserving, Zval =  3.0
     Generated using ONCVPSP code by D. R. Hamann
     Using radial grid of  602 points,  4 beta functions with: 
                l(1) =   0
                l(2) =   0
                l(3) =   1
                l(4) =   1

     atomic species   valence    mass     pseudopotential
        Mo            13.00    92.90600     Xx( 1.00)
        B              3.00    10.81000     B ( 1.00)

     24 Sym. Ops., with inversion, found



   Cartesian axes

     site n.     atom                  positions (alat units)
         1           Mo  tau(   1) = (   0.0000000   0.0000000   0.0000000  )
         2           B   tau(   2) = (   0.5000000   0.2886751   0.5352574  )
         3           B   tau(   3) = (   0.0000000   0.5773503   0.5352574  )

     number of k points=  3078  Gaussian smearing, width (Ry)=  0.0150

     Number of k-points >= 100: set verbosity='high' to print them.

     Dense  grid:    48439 G-vectors     FFT dimensions: (  48,  48,  50)

     Smooth grid:     7467 G-vectors     FFT dimensions: (  25,  25,  27)

     Estimated max dynamical RAM per process >     125.88 MB

     Estimated total dynamical RAM >    1007.03 MB

     The potential is recalculated from file :
     ./tmp/_ph0/mob2.save/charge-density

     Starting wfcs are    0 atomic +   20 random wfcs

     Band Structure Calculation
     Davidson diagonalization with overlap

     ethr =  5.26E-11,  avg # of iterations = 21.9

     total cpu time spent up to now is      236.8 secs

     End of band structure calculation

     Number of k-points >= 100: set verbosity='high' to print the bands.

     the Fermi energy is    18.4723 ev

     Phonon calc for qp03                                                       

     bravais-lattice index     =            4
     lattice parameter (alat)  =       5.8733  a.u.
     unit-cell volume          =     187.8355 (a.u.)^3
     number of atoms/cell      =            3
     number of atomic types    =            2
     kinetic-energy cut-off    =      44.0000  Ry
     charge density cut-off    =     616.0000  Ry
     convergence threshold     =      1.0E-14
     beta                      =       0.7000
     number of iterations used =            4
     Exchange-correlation= PBE
                           (   1   4   3   4   0   0   0)


     celldm(1)=    5.87334  celldm(2)=    0.00000  celldm(3)=    1.07051
     celldm(4)=    0.00000  celldm(5)=    0.00000  celldm(6)=    0.00000

     crystal axes: (cart. coord. in units of alat)
               a(1) = (  1.0000  0.0000  0.0000 )  
               a(2) = ( -0.5000  0.8660  0.0000 )  
               a(3) = (  0.0000  0.0000  1.0705 )  

     reciprocal axes: (cart. coord. in units 2 pi/alat)
               b(1) = (  1.0000  0.5774  0.0000 )  
               b(2) = (  0.0000  1.1547  0.0000 )  
               b(3) = (  0.0000  0.0000  0.9341 )  


     Atoms inside the unit cell: 

     Cartesian axes

     site n.  atom      mass           positions (alat units)
        1     Mo  92.9060   tau(    1) = (    0.00000    0.00000    0.00000  )
        2     B   10.8100   tau(    2) = (    0.50000    0.28868    0.53526  )
        3     B   10.8100   tau(    3) = (    0.00000    0.57735    0.53526  )

     Computing dynamical matrix for 
                    q = (   0.0000000   0.3849002   0.0000000 )
 
      4 Sym.Ops. (no q -> -q+G )


     G cutoff =  538.2580  (   6055 G-vectors)     FFT grid: ( 48, 48, 50)
     G cutoff =  153.7880  (    932 G-vectors)  smooth grid: ( 25, 25, 27)

     number of k points=  3078  Gaussian smearing, width (Ry)=  0.0150

     PseudoPot. # 1 for Xx read from file:
     /home/marcocarmonaga/Apps/qe-7.0/pseudo/Nb1.00Mo0.00.upf
     MD5 check sum: e4b562b21cfca1bf7e2ab47e57cae993
     Pseudo is Norm-conserving, Zval = 13.0
     Generated using virtual.x code
     Using radial grid of  602 points, 12 beta functions with: 
                l(1) =   0
                l(2) =   0
                l(3) =   1
                l(4) =   1
                l(5) =   2
                l(6) =   2
                l(7) =   0
                l(8) =   0
                l(9) =   1
               l(10) =   1
               l(11) =   2
               l(12) =   2

     PseudoPot. # 2 for B  read from file:
     /home/marcocarmonaga/Apps/qe-7.0/pseudo/B_ONCV_PBE-1.2.upf
     MD5 check sum: eb3cbeacc2d324d57d903df00f564d27
     Pseudo is Norm-conserving, Zval =  3.0
     Generated using ONCVPSP code by D. R. Hamann
     Using radial grid of  602 points,  4 beta functions with: 
                l(1) =   0
                l(2) =   0
                l(3) =   1
                l(4) =   1

     Mode symmetry, C_2v (mm2)  point group:


     Atomic displacements:
     There are    9 irreducible representations

     Representation     1      1 modes -  To be done

     Representation     2      1 modes -  To be done

     Representation     3      1 modes -  To be done

     Representation     4      1 modes -  To be done

     Representation     5      1 modes -  To be done

     Representation     6      1 modes -  To be done

     Representation     7      1 modes -  To be done

     Representation     8      1 modes -  To be done

     Representation     9      1 modes -  To be done



     Alpha used in Ewald sum =   2.8000
     PHONON       :   3m58.84s CPU   4m 5.05s WALL



     Representation #   1 mode #   1

     Self-consistent Calculation

      iter #   1 total cpu time :   273.1 secs   av.it.:   7.3
      thresh= 1.000E-02 alpha_mix =  0.700 |ddv_scf|^2 =  1.719E-04

      iter #   2 total cpu time :   310.3 secs   av.it.:  12.3
      thresh= 1.311E-03 alpha_mix =  0.700 |ddv_scf|^2 =  9.451E-03

      iter #   3 total cpu time :   339.9 secs   av.it.:   9.3
      thresh= 9.722E-03 alpha_mix =  0.700 |ddv_scf|^2 =  3.486E-06

      iter #   4 total cpu time :   376.2 secs   av.it.:  12.0
      thresh= 1.867E-04 alpha_mix =  0.700 |ddv_scf|^2 =  5.995E-07

      iter #   5 total cpu time :   411.3 secs   av.it.:  11.6
      thresh= 7.743E-05 alpha_mix =  0.700 |ddv_scf|^2 =  1.874E-08

      iter #   6 total cpu time :   448.0 secs   av.it.:  12.0
      thresh= 1.369E-05 alpha_mix =  0.700 |ddv_scf|^2 =  3.808E-10

      iter #   7 total cpu time :   484.8 secs   av.it.:  12.1
      thresh= 1.952E-06 alpha_mix =  0.700 |ddv_scf|^2 =  5.808E-09

      iter #   8 total cpu time :   515.5 secs   av.it.:   9.7
      thresh= 7.621E-06 alpha_mix =  0.700 |ddv_scf|^2 =  3.545E-11

      iter #   9 total cpu time :   551.1 secs   av.it.:  11.7
      thresh= 5.954E-07 alpha_mix =  0.700 |ddv_scf|^2 =  1.220E-10

      iter #  10 total cpu time :   582.2 secs   av.it.:   9.9
      thresh= 1.104E-06 alpha_mix =  0.700 |ddv_scf|^2 =  9.032E-13

      iter #  11 total cpu time :   620.4 secs   av.it.:  12.8
      thresh= 9.504E-08 alpha_mix =  0.700 |ddv_scf|^2 =  1.457E-12

      iter #  12 total cpu time :   655.5 secs   av.it.:  11.6
      thresh= 1.207E-07 alpha_mix =  0.700 |ddv_scf|^2 =  4.393E-13

      iter #  13 total cpu time :   689.9 secs   av.it.:  11.3
      thresh= 6.628E-08 alpha_mix =  0.700 |ddv_scf|^2 =  1.056E-14

      iter #  14 total cpu time :   726.6 secs   av.it.:  12.2
      thresh= 1.027E-08 alpha_mix =  0.700 |ddv_scf|^2 =  2.058E-14

      iter #  15 total cpu time :   759.5 secs   av.it.:  10.7
      thresh= 1.435E-08 alpha_mix =  0.700 |ddv_scf|^2 =  8.964E-17

     End of self-consistent calculation

     Convergence has been achieved 


     Representation #   2 mode #   2

     Self-consistent Calculation

      iter #   1 total cpu time :   795.5 secs   av.it.:   9.4
      thresh= 1.000E-02 alpha_mix =  0.700 |ddv_scf|^2 =  2.722E-03

      iter #   2 total cpu time :   832.6 secs   av.it.:  12.3
      thresh= 5.218E-03 alpha_mix =  0.700 |ddv_scf|^2 =  1.391E-01

      iter #   3 total cpu time :   867.0 secs   av.it.:  11.2
      thresh= 1.000E-02 alpha_mix =  0.700 |ddv_scf|^2 =  2.594E-04

      iter #   4 total cpu time :   901.3 secs   av.it.:  11.2
      thresh= 1.611E-03 alpha_mix =  0.700 |ddv_scf|^2 =  2.489E-05

      iter #   5 total cpu time :   934.9 secs   av.it.:  10.9
      thresh= 4.989E-04 alpha_mix =  0.700 |ddv_scf|^2 =  6.809E-07

      iter #   6 total cpu time :   969.6 secs   av.it.:  11.4
      thresh= 8.252E-05 alpha_mix =  0.700 |ddv_scf|^2 =  1.577E-08

      iter #   7 total cpu time :  1003.7 secs   av.it.:  11.2
      thresh= 1.256E-05 alpha_mix =  0.700 |ddv_scf|^2 =  1.796E-11

      iter #   8 total cpu time :  1041.2 secs   av.it.:  12.6
      thresh= 4.238E-07 alpha_mix =  0.700 |ddv_scf|^2 =  5.929E-12

      iter #   9 total cpu time :  1079.3 secs   av.it.:  12.8
      thresh= 2.435E-07 alpha_mix =  0.700 |ddv_scf|^2 =  7.067E-11

      iter #  10 total cpu time :  1110.5 secs   av.it.:   9.9
      thresh= 8.407E-07 alpha_mix =  0.700 |ddv_scf|^2 =  8.826E-12

      iter #  11 total cpu time :  1144.9 secs   av.it.:  11.3
      thresh= 2.971E-07 alpha_mix =  0.700 |ddv_scf|^2 =  1.752E-12

      iter #  12 total cpu time :  1176.7 secs   av.it.:  10.2
      thresh= 1.324E-07 alpha_mix =  0.700 |ddv_scf|^2 =  6.002E-13

      iter #  13 total cpu time :  1210.4 secs   av.it.:  11.0
      thresh= 7.747E-08 alpha_mix =  0.700 |ddv_scf|^2 =  1.145E-13

      iter #  14 total cpu time :  1244.5 secs   av.it.:  11.2
      thresh= 3.384E-08 alpha_mix =  0.700 |ddv_scf|^2 =  2.560E-15

     End of self-consistent calculation

     Convergence has been achieved 


     Representation #   3 mode #   3

     Self-consistent Calculation

      iter #   1 total cpu time :  1273.6 secs   av.it.:   7.3
      thresh= 1.000E-02 alpha_mix =  0.700 |ddv_scf|^2 =  1.719E-04

      iter #   2 total cpu time :  1310.8 secs   av.it.:  12.3
      thresh= 1.311E-03 alpha_mix =  0.700 |ddv_scf|^2 =  9.451E-03

      iter #   3 total cpu time :  1340.5 secs   av.it.:   9.3
      thresh= 9.722E-03 alpha_mix =  0.700 |ddv_scf|^2 =  3.487E-06

      iter #   4 total cpu time :  1376.8 secs   av.it.:  12.0
      thresh= 1.867E-04 alpha_mix =  0.700 |ddv_scf|^2 =  5.995E-07

      iter #   5 total cpu time :  1411.9 secs   av.it.:  11.6
      thresh= 7.743E-05 alpha_mix =  0.700 |ddv_scf|^2 =  1.874E-08

      iter #   6 total cpu time :  1448.1 secs   av.it.:  12.0
      thresh= 1.369E-05 alpha_mix =  0.700 |ddv_scf|^2 =  3.771E-10

      iter #   7 total cpu time :  1484.7 secs   av.it.:  12.1
      thresh= 1.942E-06 alpha_mix =  0.700 |ddv_scf|^2 =  5.800E-09

      iter #   8 total cpu time :  1515.5 secs   av.it.:   9.7
      thresh= 7.616E-06 alpha_mix =  0.700 |ddv_scf|^2 =  3.551E-11

      iter #   9 total cpu time :  1551.0 secs   av.it.:  11.7
      thresh= 5.959E-07 alpha_mix =  0.700 |ddv_scf|^2 =  1.219E-10

      iter #  10 total cpu time :  1582.3 secs   av.it.:   9.9
      thresh= 1.104E-06 alpha_mix =  0.700 |ddv_scf|^2 =  9.035E-13

      iter #  11 total cpu time :  1620.4 secs   av.it.:  12.8
      thresh= 9.505E-08 alpha_mix =  0.700 |ddv_scf|^2 =  1.456E-12

      iter #  12 total cpu time :  1655.9 secs   av.it.:  11.6
      thresh= 1.206E-07 alpha_mix =  0.700 |ddv_scf|^2 =  4.397E-13

      iter #  13 total cpu time :  1690.3 secs   av.it.:  11.3
      thresh= 6.631E-08 alpha_mix =  0.700 |ddv_scf|^2 =  1.048E-14

      iter #  14 total cpu time :  1727.0 secs   av.it.:  12.2
      thresh= 1.024E-08 alpha_mix =  0.700 |ddv_scf|^2 =  2.058E-14

      iter #  15 total cpu time :  1760.0 secs   av.it.:  10.7
      thresh= 1.434E-08 alpha_mix =  0.700 |ddv_scf|^2 =  8.864E-17

     End of self-consistent calculation

     Convergence has been achieved 


     Representation #   4 mode #   4

     Self-consistent Calculation

      iter #   1 total cpu time :  1786.0 secs   av.it.:   6.2
      thresh= 1.000E-02 alpha_mix =  0.700 |ddv_scf|^2 =  3.697E-07

      iter #   2 total cpu time :  1823.1 secs   av.it.:  12.4
      thresh= 6.080E-05 alpha_mix =  0.700 |ddv_scf|^2 =  4.639E-08

      iter #   3 total cpu time :  1859.5 secs   av.it.:  12.2
      thresh= 2.154E-05 alpha_mix =  0.700 |ddv_scf|^2 =  6.769E-10

      iter #   4 total cpu time :  1895.2 secs   av.it.:  11.9
      thresh= 2.602E-06 alpha_mix =  0.700 |ddv_scf|^2 =  3.625E-11

      iter #   5 total cpu time :  1929.7 secs   av.it.:  11.5
      thresh= 6.021E-07 alpha_mix =  0.700 |ddv_scf|^2 =  4.898E-14

      iter #   6 total cpu time :  1968.0 secs   av.it.:  12.9
      thresh= 2.213E-08 alpha_mix =  0.700 |ddv_scf|^2 =  3.437E-16

     End of self-consistent calculation

     Convergence has been achieved 


     Representation #   5 mode #   5

     Self-consistent Calculation

      iter #   1 total cpu time :  1994.1 secs   av.it.:   6.2
      thresh= 1.000E-02 alpha_mix =  0.700 |ddv_scf|^2 =  3.697E-07

      iter #   2 total cpu time :  2031.2 secs   av.it.:  12.4
      thresh= 6.080E-05 alpha_mix =  0.700 |ddv_scf|^2 =  4.639E-08

      iter #   3 total cpu time :  2067.5 secs   av.it.:  12.2
      thresh= 2.154E-05 alpha_mix =  0.700 |ddv_scf|^2 =  6.769E-10

      iter #   4 total cpu time :  2103.2 secs   av.it.:  11.9
      thresh= 2.602E-06 alpha_mix =  0.700 |ddv_scf|^2 =  3.625E-11

      iter #   5 total cpu time :  2137.8 secs   av.it.:  11.5
      thresh= 6.021E-07 alpha_mix =  0.700 |ddv_scf|^2 =  4.898E-14

      iter #   6 total cpu time :  2176.1 secs   av.it.:  12.9
      thresh= 2.213E-08 alpha_mix =  0.700 |ddv_scf|^2 =  3.437E-16

     End of self-consistent calculation

     Convergence has been achieved 


     Representation #   6 mode #   6

     Self-consistent Calculation

      iter #   1 total cpu time :  2208.7 secs   av.it.:   8.2
      thresh= 1.000E-02 alpha_mix =  0.700 |ddv_scf|^2 =  1.041E-05

      iter #   2 total cpu time :  2245.5 secs   av.it.:  12.3
      thresh= 3.226E-04 alpha_mix =  0.700 |ddv_scf|^2 =  1.816E-06

      iter #   3 total cpu time :  2281.5 secs   av.it.:  12.1
      thresh= 1.348E-04 alpha_mix =  0.700 |ddv_scf|^2 =  1.478E-09

      iter #   4 total cpu time :  2318.7 secs   av.it.:  12.5
      thresh= 3.845E-06 alpha_mix =  0.700 |ddv_scf|^2 =  1.112E-10

      iter #   5 total cpu time :  2354.3 secs   av.it.:  11.9
      thresh= 1.055E-06 alpha_mix =  0.700 |ddv_scf|^2 =  6.038E-13

      iter #   6 total cpu time :  2391.4 secs   av.it.:  12.4
      thresh= 7.771E-08 alpha_mix =  0.700 |ddv_scf|^2 =  3.937E-15

     End of self-consistent calculation

     Convergence has been achieved 


     Representation #   7 mode #   7

     Self-consistent Calculation

      iter #   1 total cpu time :  2424.0 secs   av.it.:   8.2
      thresh= 1.000E-02 alpha_mix =  0.700 |ddv_scf|^2 =  1.125E-05

      iter #   2 total cpu time :  2461.0 secs   av.it.:  12.4
      thresh= 3.354E-04 alpha_mix =  0.700 |ddv_scf|^2 =  2.045E-06

      iter #   3 total cpu time :  2497.2 secs   av.it.:  12.1
      thresh= 1.430E-04 alpha_mix =  0.700 |ddv_scf|^2 =  1.720E-09

      iter #   4 total cpu time :  2534.9 secs   av.it.:  12.6
      thresh= 4.148E-06 alpha_mix =  0.700 |ddv_scf|^2 =  1.261E-10

      iter #   5 total cpu time :  2571.0 secs   av.it.:  12.1
      thresh= 1.123E-06 alpha_mix =  0.700 |ddv_scf|^2 =  8.848E-13

      iter #   6 total cpu time :  2607.3 secs   av.it.:  12.1
      thresh= 9.406E-08 alpha_mix =  0.700 |ddv_scf|^2 =  2.492E-14

      iter #   7 total cpu time :  2643.9 secs   av.it.:  12.3
      thresh= 1.579E-08 alpha_mix =  0.700 |ddv_scf|^2 =  3.133E-16

     End of self-consistent calculation

     Convergence has been achieved 


     Representation #   8 mode #   8

     Self-consistent Calculation

      iter #   1 total cpu time :  2669.8 secs   av.it.:   6.1
      thresh= 1.000E-02 alpha_mix =  0.700 |ddv_scf|^2 =  3.191E-07

      iter #   2 total cpu time :  2707.5 secs   av.it.:  12.7
      thresh= 5.649E-05 alpha_mix =  0.700 |ddv_scf|^2 =  3.567E-08

      iter #   3 total cpu time :  2744.4 secs   av.it.:  12.4
      thresh= 1.889E-05 alpha_mix =  0.700 |ddv_scf|^2 =  7.597E-10

      iter #   4 total cpu time :  2780.7 secs   av.it.:  12.2
      thresh= 2.756E-06 alpha_mix =  0.700 |ddv_scf|^2 =  4.401E-11

      iter #   5 total cpu time :  2816.7 secs   av.it.:  12.0
      thresh= 6.634E-07 alpha_mix =  0.700 |ddv_scf|^2 =  1.378E-13

      iter #   6 total cpu time :  2854.7 secs   av.it.:  12.8
      thresh= 3.713E-08 alpha_mix =  0.700 |ddv_scf|^2 =  6.225E-16

     End of self-consistent calculation

     Convergence has been achieved 


     Representation #   9 mode #   9

     Self-consistent Calculation

      iter #   1 total cpu time :  2880.6 secs   av.it.:   6.1
      thresh= 1.000E-02 alpha_mix =  0.700 |ddv_scf|^2 =  3.191E-07

      iter #   2 total cpu time :  2918.3 secs   av.it.:  12.7
      thresh= 5.649E-05 alpha_mix =  0.700 |ddv_scf|^2 =  3.567E-08

      iter #   3 total cpu time :  2955.2 secs   av.it.:  12.4
      thresh= 1.889E-05 alpha_mix =  0.700 |ddv_scf|^2 =  7.597E-10

      iter #   4 total cpu time :  2991.5 secs   av.it.:  12.2
      thresh= 2.756E-06 alpha_mix =  0.700 |ddv_scf|^2 =  4.401E-11

      iter #   5 total cpu time :  3027.5 secs   av.it.:  12.0
      thresh= 6.634E-07 alpha_mix =  0.700 |ddv_scf|^2 =  1.378E-13

      iter #   6 total cpu time :  3065.5 secs   av.it.:  12.8
      thresh= 3.713E-08 alpha_mix =  0.700 |ddv_scf|^2 =  6.225E-16

     End of self-consistent calculation

     Convergence has been achieved 
 
     Number of q in the star =    6
     List of q in the star:
          1   0.000000000   0.384900179   0.000000000
          2   0.333333333   0.192450090   0.000000000
          3  -0.333333333   0.192450090   0.000000000
          4  -0.333333333  -0.192450090   0.000000000
          5   0.000000000  -0.384900179   0.000000000
          6   0.333333333  -0.192450090   0.000000000

     Diagonalizing the dynamical matrix

     q = (    0.000000000   0.384900179   0.000000000 ) 

 **************************************************************************
     freq (    1) =       5.035155 [THz] =     167.954701 [cm-1]
     freq (    2) =       5.456076 [THz] =     181.995097 [cm-1]
     freq (    3) =       6.913573 [THz] =     230.611982 [cm-1]
     freq (    4) =      14.454374 [THz] =     482.146007 [cm-1]
     freq (    5) =      14.501475 [THz] =     483.717123 [cm-1]
     freq (    6) =      15.356598 [THz] =     512.240968 [cm-1]
     freq (    7) =      18.112410 [THz] =     604.164960 [cm-1]
     freq (    8) =      22.339383 [THz] =     745.161607 [cm-1]
     freq (    9) =      22.868834 [THz] =     762.822206 [cm-1]
 **************************************************************************

     Mode symmetry, C_2v (mm2)  point group:

     freq (   1-   1) =        168.0  [cm-1]   --> B_2  D_4  S_4      
     freq (   2-   2) =        182.0  [cm-1]   --> B_1  D_3  S_3      
     freq (   3-   3) =        230.6  [cm-1]   --> A_1  D_1  S_1      
     freq (   4-   4) =        482.1  [cm-1]   --> B_2  D_4  S_4      
     freq (   5-   5) =        483.7  [cm-1]   --> B_1  D_3  S_3      
     freq (   6-   6) =        512.2  [cm-1]   --> B_2  D_4  S_4      
     freq (   7-   7) =        604.2  [cm-1]   --> A_1  D_1  S_1      
     freq (   8-   8) =        745.2  [cm-1]   --> B_1  D_3  S_3      
     freq (   9-   9) =        762.8  [cm-1]   --> A_1  D_1  S_1      
 
     init_run     :      0.14s CPU      0.15s WALL (       1 calls)
     electrons    :    230.63s CPU    236.62s WALL (       1 calls)

     Called by init_run:
     wfcinit      :      0.00s CPU      0.00s WALL (       1 calls)
     potinit      :      0.01s CPU      0.02s WALL (       1 calls)
     hinit0       :      0.03s CPU      0.03s WALL (       1 calls)

     Called by electrons:
     c_bands      :    230.52s CPU    236.51s WALL (       1 calls)
     v_of_rho     :      0.02s CPU      0.03s WALL (       2 calls)

     Called by c_bands:
     init_us_2    :     16.98s CPU     17.80s WALL (  158517 calls)
     init_us_2:cp :     16.44s CPU     17.32s WALL (  158517 calls)
     cegterg      :    217.75s CPU    223.34s WALL (    4496 calls)

     Called by *egterg:
     cdiaghg      :     80.15s CPU     81.98s WALL (   70488 calls)
     h_psi        :   2077.08s CPU   2177.30s WALL ( 2457471 calls)
     g_psi        :      0.55s CPU      0.57s WALL (   67410 calls)

     Called by h_psi:
     h_psi:calbec :    122.70s CPU    128.62s WALL ( 2457471 calls)
     vloc_psi     :   1820.41s CPU   1908.17s WALL ( 2457471 calls)
     add_vuspsi   :    107.10s CPU    112.91s WALL ( 2457471 calls)

     General routines
     calbec       :    215.93s CPU    226.41s WALL ( 4910752 calls)
     fft          :      0.52s CPU      0.53s WALL (    1079 calls)
     ffts         :      1.38s CPU      1.43s WALL (   14096 calls)
     fftw         :   1922.92s CPU   2019.47s WALL (36296456 calls)
     interpolate  :      0.14s CPU      0.14s WALL (     164 calls)
 
     Parallel routines
 
     PHONON       :  48m45.33s CPU  51m 6.69s WALL

     INITIALIZATION: 
     phq_setup    :      0.03s CPU      0.03s WALL (       1 calls)
     phq_init     :      7.55s CPU      7.63s WALL (       1 calls)
 
     phq_init     :      7.55s CPU      7.63s WALL (       1 calls)
     init_vloc    :      0.03s CPU      0.03s WALL (       2 calls)
     init_us_1    :      0.02s CPU      0.03s WALL (       2 calls)
     init_us_2    :     16.98s CPU     17.80s WALL (  158517 calls)
 
     DYNAMICAL MATRIX:
     dynmat0      :      6.62s CPU      6.65s WALL (       1 calls)
     phqscf       :   2686.49s CPU   2821.59s WALL (       1 calls)
     dynmatrix    :      0.00s CPU      0.00s WALL (       1 calls)
 
     phqscf       :   2686.49s CPU   2821.59s WALL (       1 calls)
     solve_linter :   2676.66s CPU   2811.65s WALL (       9 calls)
     drhodv       :      9.83s CPU      9.94s WALL (       9 calls)
 
     dynmat0      :      6.62s CPU      6.65s WALL (       1 calls)
     dynmat_us    :      6.61s CPU      6.65s WALL (       1 calls)
     d2ionq       :      0.00s CPU      0.00s WALL (       1 calls)
 
     dynmat_us    :      6.61s CPU      6.65s WALL (       1 calls)
 
     phqscf       :   2686.49s CPU   2821.59s WALL (       1 calls)
     solve_linter :   2676.66s CPU   2811.65s WALL (       9 calls)
 
     solve_linter :   2676.66s CPU   2811.65s WALL (       9 calls)
     dvqpsi_us    :     52.22s CPU     53.85s WALL (   13851 calls)
     sth_kernel   :   2618.02s CPU   2751.27s WALL (      81 calls)
     apply_dpot_b :    144.63s CPU    152.94s WALL (  110808 calls)
     ortho        :     14.92s CPU     15.74s WALL (  124659 calls)
     cgsolve      :   2264.08s CPU   2376.26s WALL (  124659 calls)
     incdrhoscf   :    155.21s CPU    164.86s WALL (  124659 calls)
     dv_of_drho   :      1.01s CPU      1.02s WALL (      81 calls)
     mix_pot      :      0.25s CPU      0.26s WALL (      81 calls)
     psymdvscf    :      3.25s CPU      3.28s WALL (      81 calls)
 
     dvqpsi_us    :     52.22s CPU     53.85s WALL (   13851 calls)
     dvqpsi_us_on :     17.13s CPU     17.65s WALL (   13851 calls)
 
     cgsolve      :   2264.08s CPU   2376.26s WALL (  124659 calls)
     ch_psi       :   2195.97s CPU   2304.04s WALL ( 2382487 calls)
 
     ch_psi       :   2195.97s CPU   2304.04s WALL ( 2382487 calls)
     h_psi        :   2077.08s CPU   2177.30s WALL ( 2457471 calls)
     last         :    197.52s CPU    207.41s WALL ( 2382487 calls)
 
     h_psi        :   2077.08s CPU   2177.30s WALL ( 2457471 calls)
     add_vuspsi   :    107.10s CPU    112.91s WALL ( 2457471 calls)
 
     incdrhoscf   :    155.21s CPU    164.86s WALL (  124659 calls)
 
 
      General routines
     calbec       :    215.93s CPU    226.41s WALL ( 4910752 calls)
     fft          :      0.52s CPU      0.53s WALL (    1079 calls)
     ffts         :      1.38s CPU      1.43s WALL (   14096 calls)
     fftw         :   1922.92s CPU   2019.47s WALL (36296456 calls)
 
 
     PHONON       :  48m45.33s CPU  51m 6.69s WALL

 
   This run was terminated on:   5:45:21  31May2022            

=------------------------------------------------------------------------------=
   JOB DONE.
=------------------------------------------------------------------------------=
