
     Program BANDS v.7.0 starts on 28Apr2022 at 14:32: 0 

     This program is part of the open-source Quantum ESPRESSO suite
     for quantum simulation of materials; please cite
         "P. Giannozzi et al., J. Phys.:Condens. Matter 21 395502 (2009);
         "P. Giannozzi et al., J. Phys.:Condens. Matter 29 465901 (2017);
         "P. Giannozzi et al., J. Chem. Phys. 152 154105 (2020);
          URL http://www.quantum-espresso.org", 
     in publications or presentations arising from this work. More details at
     http://www.quantum-espresso.org/quote

     Parallel version (MPI), running on     8 processors

     MPI processes distributed on     1 nodes
     R & G space division:  proc/nbgrp/npool/nimage =       8
     2302 MiB available memory on the printing compute node when the environment starts
 

     Reading xml data from directory:

     ./tmp/mob2.save/

     IMPORTANT: XC functional enforced from input :
     Exchange-correlation= PBE
                           (   1   4   3   4   0   0   0)
     Any further DFT definition will be discarded
     Please, verify this is what you really want

 
     Parallelization info
     --------------------
     sticks:   dense  smooth     PW     G-vecs:    dense   smooth      PW
     Min          37      37     11                  556      556     105
     Max          38      38     13                  557      557     106
     Sum         301     301     97                 4451     4451     841
 
     Using Slab Decomposition
 
     Reading collected, re-writing distributed wavefunctions
     high-symmetry point:  0.0000 0.0000 0.0000   x coordinate   0.0000
     high-symmetry point:  0.0000 0.5774 0.0000   x coordinate   0.5774
     high-symmetry point:  0.3333 0.5774 0.0000   x coordinate   0.9107
     high-symmetry point:  0.0000 0.0000 0.0000   x coordinate   1.5774
     high-symmetry point:  0.0000 0.0000 0.4640   x coordinate   2.0413
     high-symmetry point:  0.0000 0.5774 0.4640   x coordinate   2.6187
     high-symmetry point:  0.3333 0.5774 0.4640   x coordinate   2.9520
     high-symmetry point:  0.0000 0.0000 0.4640   x coordinate   3.6187

     Plottable bands (eV) written to file mob2_bands.bands.gnu
     Bands written to file mob2_bands.bands

 **************************************************************************

                    xk=(   0.00000,   0.00000,   0.00000  )

     point group D_6h(6/mmm)
     there are 12 classes
     the character table:

       E     2C6   2C3   C2    3C2'  3C2'' i     2S3   2S6   s_h   3s_d  3s_v 
A_1g   1.00  1.00  1.00  1.00  1.00  1.00  1.00  1.00  1.00  1.00  1.00  1.00
A_2g   1.00  1.00  1.00  1.00 -1.00 -1.00  1.00  1.00  1.00  1.00 -1.00 -1.00
B_1g   1.00 -1.00  1.00 -1.00  1.00 -1.00  1.00 -1.00  1.00 -1.00  1.00 -1.00
B_2g   1.00 -1.00  1.00 -1.00 -1.00  1.00  1.00 -1.00  1.00 -1.00 -1.00  1.00
E_1g   2.00  1.00 -1.00 -2.00  0.00  0.00  2.00  1.00 -1.00 -2.00  0.00  0.00
E_2g   2.00 -1.00 -1.00  2.00  0.00  0.00  2.00 -1.00 -1.00  2.00  0.00  0.00
A_1u   1.00  1.00  1.00  1.00  1.00  1.00 -1.00 -1.00 -1.00 -1.00 -1.00 -1.00
A_2u   1.00  1.00  1.00  1.00 -1.00 -1.00 -1.00 -1.00 -1.00 -1.00  1.00  1.00
B_1u   1.00 -1.00  1.00 -1.00  1.00 -1.00 -1.00  1.00 -1.00  1.00 -1.00  1.00
B_2u   1.00 -1.00  1.00 -1.00 -1.00  1.00 -1.00  1.00 -1.00  1.00  1.00 -1.00
E_1u   2.00  1.00 -1.00 -2.00  0.00  0.00 -2.00 -1.00  1.00  2.00  0.00  0.00
E_2u   2.00 -1.00 -1.00  2.00  0.00  0.00 -2.00  1.00  1.00 -2.00  0.00  0.00

     the symmetry operations in each class and the name of the first element:

     E        1
                                                                 
     2C6      5    6
                                                                 
     2C3      7    8
                                                                 
     C2       2
                                                                 
     3C2'     4   12   11
                                                                 
     3C2''    3    9   10
                                                                 
     i       13
                                                                 
     2S3     17   18
                                                                 
     2S6     19   20
                                                                 
     s_h     14
                                                                 
     3s_d    16   24   23
                                                                 
     3s_v    15   21   22
                                                                 

     Band symmetry, D_6h(6/mmm) point group:

     e(  1 -  1) =    -38.91156  eV     1   --> A_1g           
     e(  2 -  2) =    -13.17295  eV     1   --> A_2u           
     e(  3 -  4) =    -12.64271  eV     2   --> E_1u           
     e(  5 -  5) =      7.06630  eV     1   --> A_1g           
     e(  6 -  6) =     17.09072  eV     1   --> A_1g           
     e(  7 -  8) =     17.44147  eV     2   --> E_2g           
     e(  9 -  9) =     19.14261  eV     1   --> A_2u           
     e( 10 - 11) =     23.21095  eV     2   --> E_1g           
     e( 12 - 13) =     25.88074  eV     2   --> E_2g           
     e( 14 - 15) =     27.86607  eV     2   --> E_1u           
     e( 16 - 16) =     28.79236  eV     1   --> B_2u           
     e( 17 - 17) =     31.91869  eV     1   --> B_1g           
     e( 18 - 18) =     33.70663  eV     1   --> A_1g           
     e( 19 - 20) =     40.49563  eV     2   --> E_2u           

 **************************************************************************

 **************************************************************************

                    xk=(   0.00000,   0.01443,   0.00000  )

     point group C_2v (mm2) 
     there are  4 classes
     the character table:

       E     C2    s_v   s_v' 
A_1    1.00  1.00  1.00  1.00
A_2    1.00  1.00 -1.00 -1.00
B_1    1.00 -1.00  1.00 -1.00
B_2    1.00 -1.00 -1.00  1.00

     the symmetry operations in each class and the name of the first element:

     E        1
                                                                 
     C2       2
                                                                 
     s_v      3
                                                                 
     s_v'     4
                                                                 

     Band symmetry, C_2v (mm2)  point group:

     e(  1 -  1) =    -38.91136  eV     1   --> A_1  D_1  S_1  
     e(  2 -  2) =    -13.17268  eV     1   --> B_2  D_4  S_4  
     e(  3 -  3) =    -12.64434  eV     1   --> A_1  D_1  S_1  
     e(  4 -  4) =    -12.64307  eV     1   --> B_1  D_3  S_3  
     e(  5 -  5) =      7.06998  eV     1   --> A_1  D_1  S_1  
     e(  6 -  6) =     17.09379  eV     1   --> A_1  D_1  S_1  
     e(  7 -  7) =     17.43338  eV     1   --> A_1  D_1  S_1  
     e(  8 -  8) =     17.44345  eV     1   --> B_1  D_3  S_3  
     e(  9 -  9) =     19.13275  eV     1   --> B_2  D_4  S_4  
     e( 10 - 10) =     23.20913  eV     1   --> A_2  D_2  S_2  
     e( 11 - 11) =     23.22390  eV     1   --> B_2  D_4  S_4  
     e( 12 - 12) =     25.85290  eV     1   --> A_1  D_1  S_1  
     e( 13 - 13) =     25.85686  eV     1   --> B_1  D_3  S_3  
     e( 14 - 14) =     27.89176  eV     1   --> A_1  D_1  S_1  
     e( 15 - 15) =     27.89861  eV     1   --> B_1  D_3  S_3  
     e( 16 - 16) =     28.80586  eV     1   --> A_1  D_1  S_1  
     e( 17 - 17) =     31.90287  eV     1   --> B_2  D_4  S_4  
     e( 18 - 18) =     33.70948  eV     1   --> A_1  D_1  S_1  
     e( 19 - 19) =     40.50310  eV     1   --> A_2  D_2  S_2  
     e( 20 - 20) =     40.52163  eV     1   --> B_2  D_4  S_4  

 **************************************************************************

 **************************************************************************

                    xk=(   0.00000,   0.02887,   0.00000  )

     Band symmetry, C_2v (mm2)  point group:

     e(  1 -  1) =    -38.91075  eV     1   --> A_1  D_1  S_1  
     e(  2 -  2) =    -13.17187  eV     1   --> B_2  D_4  S_4  
     e(  3 -  3) =    -12.64920  eV     1   --> A_1  D_1  S_1  
     e(  4 -  4) =    -12.64416  eV     1   --> B_1  D_3  S_3  
     e(  5 -  5) =      7.08103  eV     1   --> A_1  D_1  S_1  
     e(  6 -  6) =     17.10295  eV     1   --> A_1  D_1  S_1  
     e(  7 -  7) =     17.40926  eV     1   --> A_1  D_1  S_1  
     e(  8 -  8) =     17.44939  eV     1   --> B_1  D_3  S_3  
     e(  9 -  9) =     19.10359  eV     1   --> B_2  D_4  S_4  
     e( 10 - 10) =     23.20370  eV     1   --> A_2  D_2  S_2  
     e( 11 - 11) =     23.26226  eV     1   --> B_2  D_4  S_4  
     e( 12 - 12) =     25.77371  eV     1   --> A_1  D_1  S_1  
     e( 13 - 13) =     25.78965  eV     1   --> B_1  D_3  S_3  
     e( 14 - 14) =     27.96457  eV     1   --> A_1  D_1  S_1  
     e( 15 - 15) =     27.99183  eV     1   --> B_1  D_3  S_3  
     e( 16 - 16) =     28.84613  eV     1   --> A_1  D_1  S_1  
     e( 17 - 17) =     31.85609  eV     1   --> B_2  D_4  S_4  
     e( 18 - 18) =     33.71797  eV     1   --> A_1  D_1  S_1  
     e( 19 - 19) =     40.52551  eV     1   --> A_2  D_2  S_2  
     e( 20 - 20) =     40.59896  eV     1   --> B_2  D_4  S_4  

 **************************************************************************

 **************************************************************************

                    xk=(   0.00000,   0.04330,   0.00000  )

     Band symmetry, C_2v (mm2)  point group:

     e(  1 -  1) =    -38.90974  eV     1   --> A_1  D_1  S_1  
     e(  2 -  2) =    -13.17053  eV     1   --> B_2  D_4  S_4  
     e(  3 -  3) =    -12.65727  eV     1   --> A_1  D_1  S_1  
     e(  4 -  4) =    -12.64597  eV     1   --> B_1  D_3  S_3  
     e(  5 -  5) =      7.09939  eV     1   --> A_1  D_1  S_1  
     e(  6 -  6) =     17.11803  eV     1   --> A_1  D_1  S_1  
     e(  7 -  7) =     17.36952  eV     1   --> A_1  D_1  S_1  
     e(  8 -  8) =     17.45920  eV     1   --> B_1  D_3  S_3  
     e(  9 -  9) =     19.05635  eV     1   --> B_2  D_4  S_4  
     e( 10 - 10) =     23.19469  eV     1   --> A_2  D_2  S_2  
     e( 11 - 11) =     23.32471  eV     1   --> B_2  D_4  S_4  
     e( 12 - 12) =     25.65362  eV     1   --> A_1  D_1  S_1  
     e( 13 - 13) =     25.68959  eV     1   --> B_1  D_3  S_3  
     e( 14 - 14) =     28.07438  eV     1   --> A_1  D_1  S_1  
     e( 15 - 15) =     28.13526  eV     1   --> B_1  D_3  S_3  
     e( 16 - 16) =     28.91254  eV     1   --> A_1  D_1  S_1  
     e( 17 - 17) =     31.78040  eV     1   --> B_2  D_4  S_4  
     e( 18 - 18) =     33.73197  eV     1   --> A_1  D_1  S_1  
     e( 19 - 19) =     40.56279  eV     1   --> A_2  D_2  S_2  
     e( 20 - 20) =     40.72565  eV     1   --> B_2  D_4  S_4  

 **************************************************************************

 **************************************************************************

                    xk=(   0.00000,   0.05774,   0.00000  )

     Band symmetry, C_2v (mm2)  point group:

     e(  1 -  1) =    -38.90833  eV     1   --> A_1  D_1  S_1  
     e(  2 -  2) =    -13.16866  eV     1   --> B_2  D_4  S_4  
     e(  3 -  3) =    -12.66849  eV     1   --> A_1  D_1  S_1  
     e(  4 -  4) =    -12.64849  eV     1   --> B_1  D_3  S_3  
     e(  5 -  5) =      7.12504  eV     1   --> A_1  D_1  S_1  
     e(  6 -  6) =     17.13867  eV     1   --> A_1  D_1  S_1  
     e(  7 -  7) =     17.31505  eV     1   --> A_1  D_1  S_1  
     e(  8 -  8) =     17.47275  eV     1   --> B_1  D_3  S_3  
     e(  9 -  9) =     18.99296  eV     1   --> B_2  D_4  S_4  
     e( 10 - 10) =     23.18220  eV     1   --> A_2  D_2  S_2  
     e( 11 - 11) =     23.40920  eV     1   --> B_2  D_4  S_4  
     e( 12 - 12) =     25.50455  eV     1   --> A_1  D_1  S_1  
     e( 13 - 13) =     25.56810  eV     1   --> B_1  D_3  S_3  
     e( 14 - 14) =     28.21005  eV     1   --> A_1  D_1  S_1  
     e( 15 - 15) =     28.31756  eV     1   --> B_1  D_3  S_3  
     e( 16 - 16) =     29.00429  eV     1   --> A_1  D_1  S_1  
     e( 17 - 17) =     31.68042  eV     1   --> B_2  D_4  S_4  
     e( 18 - 18) =     33.75129  eV     1   --> A_1  D_1  S_1  
     e( 19 - 19) =     40.61482  eV     1   --> A_2  D_2  S_2  
     e( 20 - 20) =     40.89872  eV     1   --> B_2  D_4  S_4  

 **************************************************************************

 **************************************************************************

                    xk=(   0.00000,   0.07217,   0.00000  )

     Band symmetry, C_2v (mm2)  point group:

     e(  1 -  1) =    -38.90653  eV     1   --> A_1  D_1  S_1  
     e(  2 -  2) =    -13.16628  eV     1   --> B_2  D_4  S_4  
     e(  3 -  3) =    -12.68276  eV     1   --> A_1  D_1  S_1  
     e(  4 -  4) =    -12.65170  eV     1   --> B_1  D_3  S_3  
     e(  5 -  5) =      7.15785  eV     1   --> A_1  D_1  S_1  
     e(  6 -  6) =     17.16360  eV     1   --> A_1  D_1  S_1  
     e(  7 -  7) =     17.24737  eV     1   --> A_1  D_1  S_1  
     e(  8 -  8) =     17.48984  eV     1   --> B_1  D_3  S_3  
     e(  9 -  9) =     18.91531  eV     1   --> B_2  D_4  S_4  
     e( 10 - 10) =     23.16633  eV     1   --> A_2  D_2  S_2  
     e( 11 - 11) =     23.51320  eV     1   --> B_2  D_4  S_4  
     e( 12 - 12) =     25.33590  eV     1   --> A_1  D_1  S_1  
     e( 13 - 13) =     25.43456  eV     1   --> B_1  D_3  S_3  
     e( 14 - 14) =     28.36199  eV     1   --> A_1  D_1  S_1  
     e( 15 - 15) =     28.52939  eV     1   --> B_1  D_3  S_3  
     e( 16 - 16) =     29.11979  eV     1   --> A_1  D_1  S_1  
     e( 17 - 17) =     31.55686  eV     1   --> B_2  D_4  S_4  
     e( 18 - 18) =     33.77539  eV     1   --> A_1  D_1  S_1  
     e( 19 - 19) =     40.68145  eV     1   --> A_2  D_2  S_2  
     e( 20 - 20) =     41.11447  eV     1   --> B_2  D_4  S_4  

 **************************************************************************

 **************************************************************************

                    xk=(   0.00000,   0.08660,   0.00000  )

     Band symmetry, C_2v (mm2)  point group:

     e(  1 -  1) =    -38.90436  eV     1   --> A_1  D_1  S_1  
     e(  2 -  2) =    -13.16340  eV     1   --> B_2  D_4  S_4  
     e(  3 -  3) =    -12.70000  eV     1   --> A_1  D_1  S_1  
     e(  4 -  4) =    -12.65557  eV     1   --> B_1  D_3  S_3  
     e(  5 -  5) =      7.19762  eV     1   --> A_1  D_1  S_1  
     e(  6 -  6) =     17.15611  eV     1   --> A_1  D_1  S_1  
     e(  7 -  7) =     17.20381  eV     1   --> A_1  D_1  S_1  
     e(  8 -  8) =     17.51025  eV     1   --> B_1  D_3  S_3  
     e(  9 -  9) =     18.82587  eV     1   --> B_2  D_4  S_4  
     e( 10 - 10) =     23.14722  eV     1   --> A_2  D_2  S_2  
     e( 11 - 11) =     23.63396  eV     1   --> B_2  D_4  S_4  
     e( 12 - 12) =     25.15545  eV     1   --> A_1  D_1  S_1  
     e( 13 - 13) =     25.29579  eV     1   --> B_1  D_3  S_3  
     e( 14 - 14) =     28.52269  eV     1   --> A_1  D_1  S_1  
     e( 15 - 15) =     28.76399  eV     1   --> B_1  D_3  S_3  
     e( 16 - 16) =     29.25796  eV     1   --> A_1  D_1  S_1  
     e( 17 - 17) =     31.41556  eV     1   --> B_2  D_4  S_4  
     e( 18 - 18) =     33.80284  eV     1   --> A_1  D_1  S_1  
     e( 19 - 19) =     40.76249  eV     1   --> A_2  D_2  S_2  
     e( 20 - 20) =     41.36885  eV     1   --> B_2  D_4  S_4  

 **************************************************************************

 **************************************************************************

                    xk=(   0.00000,   0.10104,   0.00000  )

     Band symmetry, C_2v (mm2)  point group:

     e(  1 -  1) =    -38.90182  eV     1   --> A_1  D_1  S_1  
     e(  2 -  2) =    -13.16004  eV     1   --> B_2  D_4  S_4  
     e(  3 -  3) =    -12.72006  eV     1   --> A_1  D_1  S_1  
     e(  4 -  4) =    -12.66009  eV     1   --> B_1  D_3  S_3  
     e(  5 -  5) =      7.24450  eV     1   --> A_1  D_1  S_1  
     e(  6 -  6) =     17.06598  eV     1   --> A_1  D_1  S_1  
     e(  7 -  7) =     17.23566  eV     1   --> A_1  D_1  S_1  
     e(  8 -  8) =     17.53386  eV     1   --> B_1  D_3  S_3  
     e(  9 -  9) =     18.72690  eV     1   --> B_2  D_4  S_4  
     e( 10 - 10) =     23.12504  eV     1   --> A_2  D_2  S_2  
     e( 11 - 11) =     23.76863  eV     1   --> B_2  D_4  S_4  
     e( 12 - 12) =     24.96936  eV     1   --> A_1  D_1  S_1  
     e( 13 - 13) =     25.15678  eV     1   --> B_1  D_3  S_3  
     e( 14 - 14) =     28.68984  eV     1   --> A_1  D_1  S_1  
     e( 15 - 15) =     29.01679  eV     1   --> B_1  D_3  S_3  
     e( 16 - 16) =     29.41794  eV     1   --> A_1  D_1  S_1  
     e( 17 - 17) =     31.26100  eV     1   --> B_2  D_4  S_4  
     e( 18 - 18) =     33.83486  eV     1   --> A_1  D_1  S_1  
     e( 19 - 19) =     40.85774  eV     1   --> A_2  D_2  S_2  
     e( 20 - 20) =     41.65790  eV     1   --> B_2  D_4  S_4  

 **************************************************************************

 **************************************************************************

                    xk=(   0.00000,   0.11547,   0.00000  )

     Band symmetry, C_2v (mm2)  point group:

     e(  1 -  1) =    -38.89892  eV     1   --> A_1  D_1  S_1  
     e(  2 -  2) =    -13.15620  eV     1   --> B_2  D_4  S_4  
     e(  3 -  3) =    -12.74281  eV     1   --> A_1  D_1  S_1  
     e(  4 -  4) =    -12.66522  eV     1   --> B_1  D_3  S_3  
     e(  5 -  5) =      7.29825  eV     1   --> A_1  D_1  S_1  
     e(  6 -  6) =     16.96148  eV     1   --> A_1  D_1  S_1  
     e(  7 -  7) =     17.27501  eV     1   --> A_1  D_1  S_1  
     e(  8 -  8) =     17.56022  eV     1   --> B_1  D_3  S_3  
     e(  9 -  9) =     18.62072  eV     1   --> B_2  D_4  S_4  
     e( 10 - 10) =     23.09997  eV     1   --> A_2  D_2  S_2  
     e( 11 - 11) =     23.91443  eV     1   --> B_2  D_4  S_4  
     e( 12 - 12) =     24.78240  eV     1   --> A_1  D_1  S_1  
     e( 13 - 13) =     25.02083  eV     1   --> B_1  D_3  S_3  
     e( 14 - 14) =     28.85531  eV     1   --> A_1  D_1  S_1  
     e( 15 - 15) =     29.28531  eV     1   --> B_1  D_3  S_3  
     e( 16 - 16) =     29.59888  eV     1   --> A_1  D_1  S_1  
     e( 17 - 17) =     31.10019  eV     1   --> B_2  D_4  S_4  
     e( 18 - 18) =     33.86992  eV     1   --> A_1  D_1  S_1  
     e( 19 - 19) =     40.96700  eV     1   --> A_2  D_2  S_2  
     e( 20 - 20) =     41.97771  eV     1   --> B_2  D_4  S_4  

 **************************************************************************

 **************************************************************************

                    xk=(   0.00000,   0.12990,   0.00000  )

     Band symmetry, C_2v (mm2)  point group:

     e(  1 -  1) =    -38.89570  eV     1   --> A_1  D_1  S_1  
     e(  2 -  2) =    -13.15193  eV     1   --> B_2  D_4  S_4  
     e(  3 -  3) =    -12.76808  eV     1   --> A_1  D_1  S_1  
     e(  4 -  4) =    -12.67094  eV     1   --> B_1  D_3  S_3  
     e(  5 -  5) =      7.35861  eV     1   --> A_1  D_1  S_1  
     e(  6 -  6) =     16.84578  eV     1   --> A_1  D_1  S_1  
     e(  7 -  7) =     17.31789  eV     1   --> A_1  D_1  S_1  
     e(  8 -  8) =     17.58866  eV     1   --> B_1  D_3  S_3  
     e(  9 -  9) =     18.50873  eV     1   --> B_2  D_4  S_4  
     e( 10 - 10) =     23.07223  eV     1   --> A_2  D_2  S_2  
     e( 11 - 11) =     24.06839  eV     1   --> B_2  D_4  S_4  
     e( 12 - 12) =     24.59603  eV     1   --> A_1  D_1  S_1  
     e( 13 - 13) =     24.88956  eV     1   --> B_1  D_3  S_3  
     e( 14 - 14) =     29.01675  eV     1   --> A_1  D_1  S_1  
     e( 15 - 15) =     29.56578  eV     1   --> B_1  D_3  S_3  
     e( 16 - 16) =     29.79906  eV     1   --> A_1  D_1  S_1  
     e( 17 - 17) =     30.93158  eV     1   --> B_2  D_4  S_4  
     e( 18 - 18) =     33.90674  eV     1   --> A_1  D_1  S_1  
     e( 19 - 19) =     41.08970  eV     1   --> A_2  D_2  S_2  
     e( 20 - 20) =     42.32373  eV     1   --> B_2  D_4  S_4  

 **************************************************************************

 **************************************************************************

                    xk=(   0.00000,   0.14434,   0.00000  )

     Band symmetry, C_2v (mm2)  point group:

     e(  1 -  1) =    -38.89217  eV     1   --> A_1  D_1  S_1  
     e(  2 -  2) =    -13.14725  eV     1   --> B_2  D_4  S_4  
     e(  3 -  3) =    -12.79569  eV     1   --> A_1  D_1  S_1  
     e(  4 -  4) =    -12.67720  eV     1   --> B_1  D_3  S_3  
     e(  5 -  5) =      7.42533  eV     1   --> A_1  D_1  S_1  
     e(  6 -  6) =     16.72113  eV     1   --> A_1  D_1  S_1  
     e(  7 -  7) =     17.36315  eV     1   --> A_1  D_1  S_1  
     e(  8 -  8) =     17.61901  eV     1   --> B_1  D_3  S_3  
     e(  9 -  9) =     18.39284  eV     1   --> B_2  D_4  S_4  
     e( 10 - 10) =     23.04204  eV     1   --> A_2  D_2  S_2  
     e( 11 - 11) =     24.22780  eV     1   --> B_2  D_4  S_4  
     e( 12 - 12) =     24.41435  eV     1   --> A_1  D_1  S_1  
     e( 13 - 13) =     24.76508  eV     1   --> B_1  D_3  S_3  
     e( 14 - 14) =     29.17209  eV     1   --> A_1  D_1  S_1  
     e( 15 - 15) =     29.85684  eV     1   --> B_1  D_3  S_3  
     e( 16 - 16) =     30.01824  eV     1   --> A_1  D_1  S_1  
     e( 17 - 17) =     30.76220  eV     1   --> B_2  D_4  S_4  
     e( 18 - 18) =     33.94336  eV     1   --> A_1  D_1  S_1  
     e( 19 - 19) =     41.22563  eV     1   --> A_2  D_2  S_2  
     e( 20 - 20) =     42.69270  eV     1   --> B_2  D_4  S_4  

 **************************************************************************

 **************************************************************************

                    xk=(   0.00000,   0.15877,   0.00000  )

     Band symmetry, C_2v (mm2)  point group:

     e(  1 -  1) =    -38.88835  eV     1   --> A_1  D_1  S_1  
     e(  2 -  2) =    -13.14217  eV     1   --> B_2  D_4  S_4  
     e(  3 -  3) =    -12.82544  eV     1   --> A_1  D_1  S_1  
     e(  4 -  4) =    -12.68396  eV     1   --> B_1  D_3  S_3  
     e(  5 -  5) =      7.49851  eV     1   --> A_1  D_1  S_1  
     e(  6 -  6) =     16.58871  eV     1   --> A_1  D_1  S_1  
     e(  7 -  7) =     17.40971  eV     1   --> A_1  D_1  S_1  
     e(  8 -  8) =     17.65080  eV     1   --> B_1  D_3  S_3  
     e(  9 -  9) =     18.27446  eV     1   --> B_2  D_4  S_4  
     e( 10 - 10) =     23.00964  eV     1   --> A_2  D_2  S_2  
     e( 11 - 11) =     24.24000  eV     1   --> A_1  D_1  S_1  
     e( 12 - 12) =     24.38985  eV     1   --> B_2  D_4  S_4  
     e( 13 - 13) =     24.64891  eV     1   --> B_1  D_3  S_3  
     e( 14 - 14) =     29.31964  eV     1   --> A_1  D_1  S_1  
     e( 15 - 15) =     30.15835  eV     1   --> B_1  D_3  S_3  
     e( 16 - 16) =     30.25549  eV     1   --> A_1  D_1  S_1  
     e( 17 - 17) =     30.59593  eV     1   --> B_2  D_4  S_4  
     e( 18 - 18) =     33.98036  eV     1   --> A_1  D_1  S_1  
     e( 19 - 19) =     41.37444  eV     1   --> A_2  D_2  S_2  
     e( 20 - 20) =     43.08111  eV     1   --> B_2  D_4  S_4  

 **************************************************************************

 **************************************************************************

                    xk=(   0.00000,   0.17321,   0.00000  )

     Band symmetry, C_2v (mm2)  point group:

     e(  1 -  1) =    -38.88426  eV     1   --> A_1  D_1  S_1  
     e(  2 -  2) =    -13.13674  eV     1   --> B_2  D_4  S_4  
     e(  3 -  3) =    -12.85714  eV     1   --> A_1  D_1  S_1  
     e(  4 -  4) =    -12.69118  eV     1   --> B_1  D_3  S_3  
     e(  5 -  5) =      7.57706  eV     1   --> A_1  D_1  S_1  
     e(  6 -  6) =     16.44950  eV     1   --> A_1  D_1  S_1  
     e(  7 -  7) =     17.45638  eV     1   --> A_1  D_1  S_1  
     e(  8 -  8) =     17.68356  eV     1   --> B_1  D_3  S_3  
     e(  9 -  9) =     18.15479  eV     1   --> B_2  D_4  S_4  
     e( 10 - 10) =     22.97529  eV     1   --> A_2  D_2  S_2  
     e( 11 - 11) =     24.07503  eV     1   --> A_1  D_1  S_1  
     e( 12 - 12) =     24.54192  eV     1   --> B_1  D_3  S_3  
     e( 13 - 13) =     24.55167  eV     1   --> B_2  D_4  S_4  
     e( 14 - 14) =     29.45781  eV     1   --> A_1  D_1  S_1  
     e( 15 - 15) =     30.43656  eV     1   --> B_2  D_4  S_4  
     e( 16 - 16) =     30.46883  eV     1   --> B_1  D_3  S_3  
     e( 17 - 17) =     30.50928  eV     1   --> A_1  D_1  S_1  
     e( 18 - 18) =     34.01387  eV     1   --> A_1  D_1  S_1  
     e( 19 - 19) =     41.53569  eV     1   --> A_2  D_2  S_2  
     e( 20 - 20) =     43.48550  eV     1   --> B_2  D_4  S_4  

 **************************************************************************

 **************************************************************************

                    xk=(   0.00000,   0.18764,   0.00000  )

     Band symmetry, C_2v (mm2)  point group:

     e(  1 -  1) =    -38.87993  eV     1   --> A_1  D_1  S_1  
     e(  2 -  2) =    -13.13099  eV     1   --> B_2  D_4  S_4  
     e(  3 -  3) =    -12.89056  eV     1   --> A_1  D_1  S_1  
     e(  4 -  4) =    -12.69881  eV     1   --> B_1  D_3  S_3  
     e(  5 -  5) =      7.66201  eV     1   --> A_1  D_1  S_1  
     e(  6 -  6) =     16.30444  eV     1   --> A_1  D_1  S_1  
     e(  7 -  7) =     17.50192  eV     1   --> A_1  D_1  S_1  
     e(  8 -  8) =     17.71674  eV     1   --> B_1  D_3  S_3  
     e(  9 -  9) =     18.03510  eV     1   --> B_2  D_4  S_4  
     e( 10 - 10) =     22.93924  eV     1   --> A_2  D_2  S_2  
     e( 11 - 11) =     23.92170  eV     1   --> A_1  D_1  S_1  
     e( 12 - 12) =     24.44494  eV     1   --> B_1  D_3  S_3  
     e( 13 - 13) =     24.71044  eV     1   --> B_2  D_4  S_4  
     e( 14 - 14) =     29.58772  eV     1   --> A_1  D_1  S_1  
     e( 15 - 15) =     30.28757  eV     1   --> B_2  D_4  S_4  
     e( 16 - 16) =     30.77766  eV     1   --> A_1  D_1  S_1  
     e( 17 - 17) =     30.78736  eV     1   --> B_1  D_3  S_3  
     e( 18 - 18) =     34.04504  eV     1   --> A_1  D_1  S_1  
     e( 19 - 19) =     41.70887  eV     1   --> A_2  D_2  S_2  
     e( 20 - 20) =     43.90238  eV     1   --> B_2  D_4  S_4  

 **************************************************************************

 **************************************************************************

                    xk=(   0.00000,   0.20207,   0.00000  )

     Band symmetry, C_2v (mm2)  point group:

     e(  1 -  1) =    -38.87537  eV     1   --> A_1  D_1  S_1  
     e(  2 -  2) =    -13.12494  eV     1   --> B_2  D_4  S_4  
     e(  3 -  3) =    -12.92548  eV     1   --> A_1  D_1  S_1  
     e(  4 -  4) =    -12.70681  eV     1   --> B_1  D_3  S_3  
     e(  5 -  5) =      7.75290  eV     1   --> A_1  D_1  S_1  
     e(  6 -  6) =     16.15512  eV     1   --> A_1  D_1  S_1  
     e(  7 -  7) =     17.54496  eV     1   --> A_1  D_1  S_1  
     e(  8 -  8) =     17.74999  eV     1   --> B_1  D_3  S_3  
     e(  9 -  9) =     17.91576  eV     1   --> B_2  D_4  S_4  
     e( 10 - 10) =     22.90177  eV     1   --> A_2  D_2  S_2  
     e( 11 - 11) =     23.78321  eV     1   --> A_1  D_1  S_1  
     e( 12 - 12) =     24.35866  eV     1   --> B_1  D_3  S_3  
     e( 13 - 13) =     24.86274  eV     1   --> B_2  D_4  S_4  
     e( 14 - 14) =     29.70819  eV     1   --> A_1  D_1  S_1  
     e( 15 - 15) =     30.15323  eV     1   --> B_2  D_4  S_4  
     e( 16 - 16) =     31.06070  eV     1   --> A_1  D_1  S_1  
     e( 17 - 17) =     31.11382  eV     1   --> B_1  D_3  S_3  
     e( 18 - 18) =     34.07115  eV     1   --> A_1  D_1  S_1  
     e( 19 - 19) =     41.89371  eV     1   --> A_2  D_2  S_2  
     e( 20 - 20) =     44.32744  eV     1   --> B_2  D_4  S_4  

 **************************************************************************

 **************************************************************************

                    xk=(   0.00000,   0.21651,   0.00000  )

     Band symmetry, C_2v (mm2)  point group:

     e(  1 -  1) =    -38.87063  eV     1   --> A_1  D_1  S_1  
     e(  2 -  2) =    -13.11864  eV     1   --> B_2  D_4  S_4  
     e(  3 -  3) =    -12.96165  eV     1   --> A_1  D_1  S_1  
     e(  4 -  4) =    -12.71512  eV     1   --> B_1  D_3  S_3  
     e(  5 -  5) =      7.84900  eV     1   --> A_1  D_1  S_1  
     e(  6 -  6) =     16.00170  eV     1   --> A_1  D_1  S_1  
     e(  7 -  7) =     17.58407  eV     1   --> A_1  D_1  S_1  
     e(  8 -  8) =     17.78249  eV     1   --> B_1  D_3  S_3  
     e(  9 -  9) =     17.79775  eV     1   --> B_2  D_4  S_4  
     e( 10 - 10) =     22.86314  eV     1   --> A_2  D_2  S_2  
     e( 11 - 11) =     23.66129  eV     1   --> A_1  D_1  S_1  
     e( 12 - 12) =     24.28298  eV     1   --> B_1  D_3  S_3  
     e( 13 - 13) =     25.00543  eV     1   --> B_2  D_4  S_4  
     e( 14 - 14) =     29.81738  eV     1   --> A_1  D_1  S_1  
     e( 15 - 15) =     30.03663  eV     1   --> B_2  D_4  S_4  
     e( 16 - 16) =     31.35469  eV     1   --> A_1  D_1  S_1  
     e( 17 - 17) =     31.44811  eV     1   --> B_1  D_3  S_3  
     e( 18 - 18) =     34.08968  eV     1   --> A_1  D_1  S_1  
     e( 19 - 19) =     42.08948  eV     1   --> A_2  D_2  S_2  
     e( 20 - 20) =     44.75548  eV     1   --> B_2  D_4  S_4  

 **************************************************************************

 **************************************************************************

                    xk=(   0.00000,   0.23094,   0.00000  )

     Band symmetry, C_2v (mm2)  point group:

     e(  1 -  1) =    -38.86573  eV     1   --> A_1  D_1  S_1  
     e(  2 -  2) =    -13.11212  eV     1   --> B_2  D_4  S_4  
     e(  3 -  3) =    -12.99886  eV     1   --> A_1  D_1  S_1  
     e(  4 -  4) =    -12.72369  eV     1   --> B_1  D_3  S_3  
     e(  5 -  5) =      7.95050  eV     1   --> A_1  D_1  S_1  
     e(  6 -  6) =     15.84461  eV     1   --> A_1  D_1  S_1  
     e(  7 -  7) =     17.61778  eV     1   --> A_1  D_1  S_1  
     e(  8 -  8) =     17.68157  eV     1   --> B_2  D_4  S_4  
     e(  9 -  9) =     17.81414  eV     1   --> B_1  D_3  S_3  
     e( 10 - 10) =     22.82362  eV     1   --> A_2  D_2  S_2  
     e( 11 - 11) =     23.55676  eV     1   --> A_1  D_1  S_1  
     e( 12 - 12) =     24.21920  eV     1   --> B_1  D_3  S_3  
     e( 13 - 13) =     25.13523  eV     1   --> B_2  D_4  S_4  
     e( 14 - 14) =     29.91702  eV     1   --> A_1  D_1  S_1  
     e( 15 - 15) =     29.94140  eV     1   --> B_2  D_4  S_4  
     e( 16 - 16) =     31.65960  eV     1   --> A_1  D_1  S_1  
     e( 17 - 17) =     31.78840  eV     1   --> B_1  D_3  S_3  
     e( 18 - 18) =     34.09945  eV     1   --> A_1  D_1  S_1  
     e( 19 - 19) =     42.29590  eV     1   --> A_2  D_2  S_2  
     e( 20 - 20) =     44.85918  eV     1   --> A_1  D_1  S_1  

 **************************************************************************

 **************************************************************************

                    xk=(   0.00000,   0.24537,   0.00000  )

     Band symmetry, C_2v (mm2)  point group:

     e(  1 -  1) =    -38.86069  eV     1   --> A_1  D_1  S_1  
     e(  2 -  2) =    -13.10543  eV     1   --> B_2  D_4  S_4  
     e(  3 -  3) =    -13.03684  eV     1   --> A_1  D_1  S_1  
     e(  4 -  4) =    -12.73247  eV     1   --> B_1  D_3  S_3  
     e(  5 -  5) =      8.05704  eV     1   --> A_1  D_1  S_1  
     e(  6 -  6) =     15.68592  eV     1   --> A_1  D_1  S_1  
     e(  7 -  7) =     17.56801  eV     1   --> B_2  D_4  S_4  
     e(  8 -  8) =     17.64481  eV     1   --> A_1  D_1  S_1  
     e(  9 -  9) =     17.84436  eV     1   --> B_1  D_3  S_3  
     e( 10 - 10) =     22.78348  eV     1   --> A_2  D_2  S_2  
     e( 11 - 11) =     23.47382  eV     1   --> A_1  D_1  S_1  
     e( 12 - 12) =     24.16710  eV     1   --> B_1  D_3  S_3  
     e( 13 - 13) =     25.24891  eV     1   --> B_2  D_4  S_4  
     e( 14 - 14) =     29.87320  eV     1   --> B_2  D_4  S_4  
     e( 15 - 15) =     30.00720  eV     1   --> A_1  D_1  S_1  
     e( 16 - 16) =     31.97453  eV     1   --> A_1  D_1  S_1  
     e( 17 - 17) =     32.13508  eV     1   --> B_1  D_3  S_3  
     e( 18 - 18) =     34.09905  eV     1   --> A_1  D_1  S_1  
     e( 19 - 19) =     42.51242  eV     1   --> A_2  D_2  S_2  
     e( 20 - 20) =     44.78266  eV     1   --> A_1  D_1  S_1  

 **************************************************************************

 **************************************************************************

                    xk=(   0.00000,   0.25981,   0.00000  )

     Band symmetry, C_2v (mm2)  point group:

     e(  1 -  1) =    -38.85555  eV     1   --> A_1  D_1  S_1  
     e(  2 -  2) =    -13.09860  eV     1   --> B_2  D_4  S_4  
     e(  3 -  3) =    -13.07536  eV     1   --> A_1  D_1  S_1  
     e(  4 -  4) =    -12.74140  eV     1   --> B_1  D_3  S_3  
     e(  5 -  5) =      8.16840  eV     1   --> A_1  D_1  S_1  
     e(  6 -  6) =     15.52433  eV     1   --> A_1  D_1  S_1  
     e(  7 -  7) =     17.45729  eV     1   --> B_2  D_4  S_4  
     e(  8 -  8) =     17.66388  eV     1   --> A_1  D_1  S_1  
     e(  9 -  9) =     17.87272  eV     1   --> B_1  D_3  S_3  
     e( 10 - 10) =     22.74300  eV     1   --> A_2  D_2  S_2  
     e( 11 - 11) =     23.41140  eV     1   --> A_1  D_1  S_1  
     e( 12 - 12) =     24.12675  eV     1   --> B_1  D_3  S_3  
     e( 13 - 13) =     25.34369  eV     1   --> B_2  D_4  S_4  
     e( 14 - 14) =     29.83220  eV     1   --> B_2  D_4  S_4  
     e( 15 - 15) =     30.08893  eV     1   --> A_1  D_1  S_1  
     e( 16 - 16) =     32.29742  eV     1   --> A_1  D_1  S_1  
     e( 17 - 17) =     32.48739  eV     1   --> B_1  D_3  S_3  
     e( 18 - 18) =     34.08728  eV     1   --> A_1  D_1  S_1  
     e( 19 - 19) =     42.73815  eV     1   --> A_2  D_2  S_2  
     e( 20 - 20) =     44.68038  eV     1   --> A_1  D_1  S_1  

 **************************************************************************

 **************************************************************************

                    xk=(   0.00000,   0.27424,   0.00000  )

     Band symmetry, C_2v (mm2)  point group:

     e(  1 -  1) =    -38.85035  eV     1   --> A_1  D_1  S_1  
     e(  2 -  2) =    -13.11417  eV     1   --> A_1  D_1  S_1  
     e(  3 -  3) =    -13.09167  eV     1   --> B_2  D_4  S_4  
     e(  4 -  4) =    -12.75043  eV     1   --> B_1  D_3  S_3  
     e(  5 -  5) =      8.28346  eV     1   --> A_1  D_1  S_1  
     e(  6 -  6) =     15.36071  eV     1   --> A_1  D_1  S_1  
     e(  7 -  7) =     17.34983  eV     1   --> B_2  D_4  S_4  
     e(  8 -  8) =     17.67400  eV     1   --> A_1  D_1  S_1  
     e(  9 -  9) =     17.89875  eV     1   --> B_1  D_3  S_3  
     e( 10 - 10) =     22.70241  eV     1   --> A_2  D_2  S_2  
     e( 11 - 11) =     23.37172  eV     1   --> A_1  D_1  S_1  
     e( 12 - 12) =     24.09778  eV     1   --> B_1  D_3  S_3  
     e( 13 - 13) =     25.41728  eV     1   --> B_2  D_4  S_4  
     e( 14 - 14) =     29.82137  eV     1   --> B_2  D_4  S_4  
     e( 15 - 15) =     30.16056  eV     1   --> A_1  D_1  S_1  
     e( 16 - 16) =     32.62571  eV     1   --> A_1  D_1  S_1  
     e( 17 - 17) =     32.84391  eV     1   --> B_1  D_3  S_3  
     e( 18 - 18) =     34.06183  eV     1   --> A_1  D_1  S_1  
     e( 19 - 19) =     42.97255  eV     1   --> A_2  D_2  S_2  
     e( 20 - 20) =     44.55064  eV     1   --> A_1  D_1  S_1  

 **************************************************************************

 **************************************************************************

                    xk=(   0.00000,   0.28868,   0.00000  )

     Band symmetry, C_2v (mm2)  point group:

     e(  1 -  1) =    -38.84511  eV     1   --> A_1  D_1  S_1  
     e(  2 -  2) =    -13.15303  eV     1   --> A_1  D_1  S_1  
     e(  3 -  3) =    -13.08470  eV     1   --> B_2  D_4  S_4  
     e(  4 -  4) =    -12.75949  eV     1   --> B_1  D_3  S_3  
     e(  5 -  5) =      8.40337  eV     1   --> A_1  D_1  S_1  
     e(  6 -  6) =     15.19581  eV     1   --> A_1  D_1  S_1  
     e(  7 -  7) =     17.24599  eV     1   --> B_2  D_4  S_4  
     e(  8 -  8) =     17.67454  eV     1   --> A_1  D_1  S_1  
     e(  9 -  9) =     17.92236  eV     1   --> B_1  D_3  S_3  
     e( 10 - 10) =     22.66199  eV     1   --> A_2  D_2  S_2  
     e( 11 - 11) =     23.35597  eV     1   --> A_1  D_1  S_1  
     e( 12 - 12) =     24.08051  eV     1   --> B_1  D_3  S_3  
     e( 13 - 13) =     25.46859  eV     1   --> B_2  D_4  S_4  
     e( 14 - 14) =     29.84191  eV     1   --> B_2  D_4  S_4  
     e( 15 - 15) =     30.22313  eV     1   --> A_1  D_1  S_1  
     e( 16 - 16) =     32.95703  eV     1   --> A_1  D_1  S_1  
     e( 17 - 17) =     33.20540  eV     1   --> B_1  D_3  S_3  
     e( 18 - 18) =     34.02485  eV     1   --> A_1  D_1  S_1  
     e( 19 - 19) =     43.21502  eV     1   --> A_2  D_2  S_2  
     e( 20 - 20) =     44.40049  eV     1   --> A_1  D_1  S_1  

 **************************************************************************

 **************************************************************************

                    xk=(   0.00000,   0.30311,   0.00000  )

     Band symmetry, C_2v (mm2)  point group:

     e(  1 -  1) =    -38.83986  eV     1   --> A_1  D_1  S_1  
     e(  2 -  2) =    -13.19171  eV     1   --> A_1  D_1  S_1  
     e(  3 -  3) =    -13.07771  eV     1   --> B_2  D_4  S_4  
     e(  4 -  4) =    -12.76854  eV     1   --> B_1  D_3  S_3  
     e(  5 -  5) =      8.52744  eV     1   --> A_1  D_1  S_1  
     e(  6 -  6) =     15.02997  eV     1   --> A_1  D_1  S_1  
     e(  7 -  7) =     17.14602  eV     1   --> B_2  D_4  S_4  
     e(  8 -  8) =     17.66521  eV     1   --> A_1  D_1  S_1  
     e(  9 -  9) =     17.94333  eV     1   --> B_1  D_3  S_3  
     e( 10 - 10) =     22.62196  eV     1   --> A_2  D_2  S_2  
     e( 11 - 11) =     23.36450  eV     1   --> A_1  D_1  S_1  
     e( 12 - 12) =     24.07459  eV     1   --> B_1  D_3  S_3  
     e( 13 - 13) =     25.49766  eV     1   --> B_2  D_4  S_4  
     e( 14 - 14) =     29.89356  eV     1   --> B_2  D_4  S_4  
     e( 15 - 15) =     30.27704  eV     1   --> A_1  D_1  S_1  
     e( 16 - 16) =     33.28511  eV     1   --> A_1  D_1  S_1  
     e( 17 - 17) =     33.57226  eV     1   --> B_1  D_3  S_3  
     e( 18 - 18) =     33.98053  eV     1   --> A_1  D_1  S_1  
     e( 19 - 19) =     43.46477  eV     1   --> A_2  D_2  S_2  
     e( 20 - 20) =     44.23309  eV     1   --> A_1  D_1  S_1  

 **************************************************************************

 **************************************************************************

                    xk=(   0.00000,   0.31754,   0.00000  )

     Band symmetry, C_2v (mm2)  point group:

     e(  1 -  1) =    -38.83463  eV     1   --> A_1  D_1  S_1  
     e(  2 -  2) =    -13.22997  eV     1   --> A_1  D_1  S_1  
     e(  3 -  3) =    -13.07076  eV     1   --> B_2  D_4  S_4  
     e(  4 -  4) =    -12.77752  eV     1   --> B_1  D_3  S_3  
     e(  5 -  5) =      8.65527  eV     1   --> A_1  D_1  S_1  
     e(  6 -  6) =     14.86349  eV     1   --> A_1  D_1  S_1  
     e(  7 -  7) =     17.05018  eV     1   --> B_2  D_4  S_4  
     e(  8 -  8) =     17.64616  eV     1   --> A_1  D_1  S_1  
     e(  9 -  9) =     17.96148  eV     1   --> B_1  D_3  S_3  
     e( 10 - 10) =     22.58257  eV     1   --> A_2  D_2  S_2  
     e( 11 - 11) =     23.39721  eV     1   --> A_1  D_1  S_1  
     e( 12 - 12) =     24.07937  eV     1   --> B_1  D_3  S_3  
     e( 13 - 13) =     25.50572  eV     1   --> B_2  D_4  S_4  
     e( 14 - 14) =     29.97473  eV     1   --> B_2  D_4  S_4  
     e( 15 - 15) =     30.32217  eV     1   --> A_1  D_1  S_1  
     e( 16 - 16) =     33.58091  eV     1   --> A_1  D_1  S_1  
     e( 17 - 17) =     33.94302  eV     1   --> B_1  D_3  S_3  
     e( 18 - 18) =     33.95614  eV     1   --> A_1  D_1  S_1  
     e( 19 - 19) =     43.72098  eV     1   --> A_2  D_2  S_2  
     e( 20 - 20) =     44.05309  eV     1   --> A_1  D_1  S_1  

 **************************************************************************

 **************************************************************************

                    xk=(   0.00000,   0.33198,   0.00000  )

     Band symmetry, C_2v (mm2)  point group:

     e(  1 -  1) =    -38.82947  eV     1   --> A_1  D_1  S_1  
     e(  2 -  2) =    -13.26758  eV     1   --> A_1  D_1  S_1  
     e(  3 -  3) =    -13.06389  eV     1   --> B_2  D_4  S_4  
     e(  4 -  4) =    -12.78637  eV     1   --> B_1  D_3  S_3  
     e(  5 -  5) =      8.78657  eV     1   --> A_1  D_1  S_1  
     e(  6 -  6) =     14.69661  eV     1   --> A_1  D_1  S_1  
     e(  7 -  7) =     16.95866  eV     1   --> B_2  D_4  S_4  
     e(  8 -  8) =     17.61793  eV     1   --> A_1  D_1  S_1  
     e(  9 -  9) =     17.97679  eV     1   --> B_1  D_3  S_3  
     e( 10 - 10) =     22.54403  eV     1   --> A_2  D_2  S_2  
     e( 11 - 11) =     23.45354  eV     1   --> A_1  D_1  S_1  
     e( 12 - 12) =     24.09419  eV     1   --> B_1  D_3  S_3  
     e( 13 - 13) =     25.49501  eV     1   --> B_2  D_4  S_4  
     e( 14 - 14) =     30.08270  eV     1   --> B_2  D_4  S_4  
     e( 15 - 15) =     30.35843  eV     1   --> A_1  D_1  S_1  
     e( 16 - 16) =     33.69760  eV     1   --> A_1  D_1  S_1  
     e( 17 - 17) =     34.09765  eV     1   --> A_1  D_1  S_1  
     e( 18 - 18) =     34.31707  eV     1   --> B_1  D_3  S_3  
     e( 19 - 19) =     43.86514  eV     1   --> A_1  D_1  S_1  
     e( 20 - 20) =     43.98278  eV     1   --> A_2  D_2  S_2  

 **************************************************************************

 **************************************************************************

                    xk=(   0.00000,   0.34641,   0.00000  )

     Band symmetry, C_2v (mm2)  point group:

     e(  1 -  1) =    -38.82439  eV     1   --> A_1  D_1  S_1  
     e(  2 -  2) =    -13.30432  eV     1   --> A_1  D_1  S_1  
     e(  3 -  3) =    -13.05713  eV     1   --> B_2  D_4  S_4  
     e(  4 -  4) =    -12.79504  eV     1   --> B_1  D_3  S_3  
     e(  5 -  5) =      8.92108  eV     1   --> A_1  D_1  S_1  
     e(  6 -  6) =     14.52976  eV     1   --> A_1  D_1  S_1  
     e(  7 -  7) =     16.87168  eV     1   --> B_2  D_4  S_4  
     e(  8 -  8) =     17.58146  eV     1   --> A_1  D_1  S_1  
     e(  9 -  9) =     17.98986  eV     1   --> B_1  D_3  S_3  
     e( 10 - 10) =     22.50657  eV     1   --> A_2  D_2  S_2  
     e( 11 - 11) =     23.53246  eV     1   --> A_1  D_1  S_1  
     e( 12 - 12) =     24.11844  eV     1   --> B_1  D_3  S_3  
     e( 13 - 13) =     25.46894  eV     1   --> B_2  D_4  S_4  
     e( 14 - 14) =     30.21421  eV     1   --> B_2  D_4  S_4  
     e( 15 - 15) =     30.38664  eV     1   --> A_1  D_1  S_1  
     e( 16 - 16) =     33.63843  eV     1   --> A_1  D_1  S_1  
     e( 17 - 17) =     34.40275  eV     1   --> A_1  D_1  S_1  
     e( 18 - 18) =     34.69379  eV     1   --> B_1  D_3  S_3  
     e( 19 - 19) =     43.67340  eV     1   --> A_1  D_1  S_1  
     e( 20 - 20) =     43.90855  eV     1   --> B_1  D_3  S_3  

 **************************************************************************

 **************************************************************************

                    xk=(   0.00000,   0.36084,   0.00000  )

     Band symmetry, C_2v (mm2)  point group:

     e(  1 -  1) =    -38.81943  eV     1   --> A_1  D_1  S_1  
     e(  2 -  2) =    -13.33997  eV     1   --> A_1  D_1  S_1  
     e(  3 -  3) =    -13.05054  eV     1   --> B_2  D_4  S_4  
     e(  4 -  4) =    -12.80347  eV     1   --> B_1  D_3  S_3  
     e(  5 -  5) =      9.05857  eV     1   --> A_1  D_1  S_1  
     e(  6 -  6) =     14.36286  eV     1   --> A_1  D_1  S_1  
     e(  7 -  7) =     16.78961  eV     1   --> B_2  D_4  S_4  
     e(  8 -  8) =     17.53795  eV     1   --> A_1  D_1  S_1  
     e(  9 -  9) =     17.99976  eV     1   --> B_1  D_3  S_3  
     e( 10 - 10) =     22.47038  eV     1   --> A_2  D_2  S_2  
     e( 11 - 11) =     23.63258  eV     1   --> A_1  D_1  S_1  
     e( 12 - 12) =     24.15098  eV     1   --> B_1  D_3  S_3  
     e( 13 - 13) =     25.43014  eV     1   --> B_2  D_4  S_4  
     e( 14 - 14) =     30.36517  eV     1   --> B_2  D_4  S_4  
     e( 15 - 15) =     30.40455  eV     1   --> A_1  D_1  S_1  
     e( 16 - 16) =     33.53385  eV     1   --> A_1  D_1  S_1  
     e( 17 - 17) =     34.73909  eV     1   --> A_1  D_1  S_1  
     e( 18 - 18) =     35.07374  eV     1   --> B_1  D_3  S_3  
     e( 19 - 19) =     43.48086  eV     1   --> A_1  D_1  S_1  
     e( 20 - 20) =     43.51517  eV     1   --> B_1  D_3  S_3  

 **************************************************************************

 **************************************************************************

                    xk=(   0.00000,   0.37528,   0.00000  )

     Band symmetry, C_2v (mm2)  point group:

     e(  1 -  1) =    -38.81463  eV     1   --> A_1  D_1  S_1  
     e(  2 -  2) =    -13.37434  eV     1   --> A_1  D_1  S_1  
     e(  3 -  3) =    -13.04415  eV     1   --> B_2  D_4  S_4  
     e(  4 -  4) =    -12.81163  eV     1   --> B_1  D_3  S_3  
     e(  5 -  5) =      9.19849  eV     1   --> A_1  D_1  S_1  
     e(  6 -  6) =     14.19612  eV     1   --> A_1  D_1  S_1  
     e(  7 -  7) =     16.71206  eV     1   --> B_2  D_4  S_4  
     e(  8 -  8) =     17.48874  eV     1   --> A_1  D_1  S_1  
     e(  9 -  9) =     18.00702  eV     1   --> B_1  D_3  S_3  
     e( 10 - 10) =     22.43564  eV     1   --> A_2  D_2  S_2  
     e( 11 - 11) =     23.75185  eV     1   --> A_1  D_1  S_1  
     e( 12 - 12) =     24.19058  eV     1   --> B_1  D_3  S_3  
     e( 13 - 13) =     25.38137  eV     1   --> B_2  D_4  S_4  
     e( 14 - 14) =     30.41194  eV     1   --> A_1  D_1  S_1  
     e( 15 - 15) =     30.53120  eV     1   --> B_2  D_4  S_4  
     e( 16 - 16) =     33.41054  eV     1   --> A_1  D_1  S_1  
     e( 17 - 17) =     35.08138  eV     1   --> A_1  D_1  S_1  
     e( 18 - 18) =     35.45326  eV     1   --> B_1  D_3  S_3  
     e( 19 - 19) =     43.13861  eV     1   --> B_1  D_3  S_3  
     e( 20 - 20) =     43.28893  eV     1   --> A_1  D_1  S_1  

 **************************************************************************

 **************************************************************************

                    xk=(   0.00000,   0.38971,   0.00000  )

     Band symmetry, C_2v (mm2)  point group:

     e(  1 -  1) =    -38.81002  eV     1   --> A_1  D_1  S_1  
     e(  2 -  2) =    -13.40723  eV     1   --> A_1  D_1  S_1  
     e(  3 -  3) =    -13.03801  eV     1   --> B_2  D_4  S_4  
     e(  4 -  4) =    -12.81945  eV     1   --> B_1  D_3  S_3  
     e(  5 -  5) =      9.34058  eV     1   --> A_1  D_1  S_1  
     e(  6 -  6) =     14.02987  eV     1   --> A_1  D_1  S_1  
     e(  7 -  7) =     16.63943  eV     1   --> B_2  D_4  S_4  
     e(  8 -  8) =     17.43538  eV     1   --> A_1  D_1  S_1  
     e(  9 -  9) =     18.01198  eV     1   --> B_1  D_3  S_3  
     e( 10 - 10) =     22.40254  eV     1   --> A_2  D_2  S_2  
     e( 11 - 11) =     23.88832  eV     1   --> A_1  D_1  S_1  
     e( 12 - 12) =     24.23624  eV     1   --> B_1  D_3  S_3  
     e( 13 - 13) =     25.32606  eV     1   --> B_2  D_4  S_4  
     e( 14 - 14) =     30.40852  eV     1   --> A_1  D_1  S_1  
     e( 15 - 15) =     30.70853  eV     1   --> B_2  D_4  S_4  
     e( 16 - 16) =     33.27597  eV     1   --> A_1  D_1  S_1  
     e( 17 - 17) =     35.42383  eV     1   --> A_1  D_1  S_1  
     e( 18 - 18) =     35.83267  eV     1   --> B_1  D_3  S_3  
     e( 19 - 19) =     42.78003  eV     1   --> B_1  D_3  S_3  
     e( 20 - 20) =     43.09925  eV     1   --> A_1  D_1  S_1  

 **************************************************************************

 **************************************************************************

                    xk=(   0.00000,   0.40415,   0.00000  )

     Band symmetry, C_2v (mm2)  point group:

     e(  1 -  1) =    -38.80562  eV     1   --> A_1  D_1  S_1  
     e(  2 -  2) =    -13.43844  eV     1   --> A_1  D_1  S_1  
     e(  3 -  3) =    -13.03215  eV     1   --> B_2  D_4  S_4  
     e(  4 -  4) =    -12.82689  eV     1   --> B_1  D_3  S_3  
     e(  5 -  5) =      9.48444  eV     1   --> A_1  D_1  S_1  
     e(  6 -  6) =     13.86437  eV     1   --> A_1  D_1  S_1  
     e(  7 -  7) =     16.57183  eV     1   --> B_2  D_4  S_4  
     e(  8 -  8) =     17.37941  eV     1   --> A_1  D_1  S_1  
     e(  9 -  9) =     18.01492  eV     1   --> B_1  D_3  S_3  
     e( 10 - 10) =     22.37124  eV     1   --> A_2  D_2  S_2  
     e( 11 - 11) =     24.03969  eV     1   --> A_1  D_1  S_1  
     e( 12 - 12) =     24.28667  eV     1   --> B_1  D_3  S_3  
     e( 13 - 13) =     25.26687  eV     1   --> B_2  D_4  S_4  
     e( 14 - 14) =     30.39338  eV     1   --> A_1  D_1  S_1  
     e( 15 - 15) =     30.89326  eV     1   --> B_2  D_4  S_4  
     e( 16 - 16) =     33.13476  eV     1   --> A_1  D_1  S_1  
     e( 17 - 17) =     35.76369  eV     1   --> A_1  D_1  S_1  
     e( 18 - 18) =     36.21065  eV     1   --> B_1  D_3  S_3  
     e( 19 - 19) =     42.44057  eV     1   --> B_1  D_3  S_3  
     e( 20 - 20) =     42.91246  eV     1   --> A_1  D_1  S_1  

 **************************************************************************

 **************************************************************************

                    xk=(   0.00000,   0.41858,   0.00000  )

     Band symmetry, C_2v (mm2)  point group:

     e(  1 -  1) =    -38.80146  eV     1   --> A_1  D_1  S_1  
     e(  2 -  2) =    -13.46782  eV     1   --> A_1  D_1  S_1  
     e(  3 -  3) =    -13.02660  eV     1   --> B_2  D_4  S_4  
     e(  4 -  4) =    -12.83391  eV     1   --> B_1  D_3  S_3  
     e(  5 -  5) =      9.62933  eV     1   --> A_1  D_1  S_1  
     e(  6 -  6) =     13.70003  eV     1   --> A_1  D_1  S_1  
     e(  7 -  7) =     16.50951  eV     1   --> B_2  D_4  S_4  
     e(  8 -  8) =     17.32242  eV     1   --> A_1  D_1  S_1  
     e(  9 -  9) =     18.01604  eV     1   --> B_1  D_3  S_3  
     e( 10 - 10) =     22.34190  eV     1   --> A_2  D_2  S_2  
     e( 11 - 11) =     24.20337  eV     1   --> A_1  D_1  S_1  
     e( 12 - 12) =     24.34047  eV     1   --> B_1  D_3  S_3  
     e( 13 - 13) =     25.20639  eV     1   --> B_2  D_4  S_4  
     e( 14 - 14) =     30.36519  eV     1   --> A_1  D_1  S_1  
     e( 15 - 15) =     31.08182  eV     1   --> B_2  D_4  S_4  
     e( 16 - 16) =     32.99130  eV     1   --> A_1  D_1  S_1  
     e( 17 - 17) =     36.09870  eV     1   --> A_1  D_1  S_1  
     e( 18 - 18) =     36.58513  eV     1   --> B_1  D_3  S_3  
     e( 19 - 19) =     42.12137  eV     1   --> B_1  D_3  S_3  
     e( 20 - 20) =     42.72781  eV     1   --> A_1  D_1  S_1  

 **************************************************************************

 **************************************************************************

                    xk=(   0.00000,   0.43301,   0.00000  )

     Band symmetry, C_2v (mm2)  point group:

     e(  1 -  1) =    -38.79757  eV     1   --> A_1  D_1  S_1  
     e(  2 -  2) =    -13.49520  eV     1   --> A_1  D_1  S_1  
     e(  3 -  3) =    -13.02142  eV     1   --> B_2  D_4  S_4  
     e(  4 -  4) =    -12.84046  eV     1   --> B_1  D_3  S_3  
     e(  5 -  5) =      9.77512  eV     1   --> A_1  D_1  S_1  
     e(  6 -  6) =     13.53718  eV     1   --> A_1  D_1  S_1  
     e(  7 -  7) =     16.45219  eV     1   --> B_2  D_4  S_4  
     e(  8 -  8) =     17.26566  eV     1   --> A_1  D_1  S_1  
     e(  9 -  9) =     18.01582  eV     1   --> B_1  D_3  S_3  
     e( 10 - 10) =     22.31464  eV     1   --> A_2  D_2  S_2  
     e( 11 - 11) =     24.37662  eV     1   --> A_1  D_1  S_1  
     e( 12 - 12) =     24.39629  eV     1   --> B_1  D_3  S_3  
     e( 13 - 13) =     25.14591  eV     1   --> B_2  D_4  S_4  
     e( 14 - 14) =     30.32376  eV     1   --> A_1  D_1  S_1  
     e( 15 - 15) =     31.27033  eV     1   --> B_2  D_4  S_4  
     e( 16 - 16) =     32.84960  eV     1   --> A_1  D_1  S_1  
     e( 17 - 17) =     36.42734  eV     1   --> A_1  D_1  S_1  
     e( 18 - 18) =     36.95514  eV     1   --> B_1  D_3  S_3  
     e( 19 - 19) =     41.82361  eV     1   --> B_1  D_3  S_3  
     e( 20 - 20) =     42.54734  eV     1   --> A_1  D_1  S_1  

 **************************************************************************

 **************************************************************************

                    xk=(   0.00000,   0.44745,   0.00000  )

     Band symmetry, C_2v (mm2)  point group:

     e(  1 -  1) =    -38.79397  eV     1   --> A_1  D_1  S_1  
     e(  2 -  2) =    -13.52044  eV     1   --> A_1  D_1  S_1  
     e(  3 -  3) =    -13.01662  eV     1   --> B_2  D_4  S_4  
     e(  4 -  4) =    -12.84651  eV     1   --> B_1  D_3  S_3  
     e(  5 -  5) =      9.92043  eV     1   --> A_1  D_1  S_1  
     e(  6 -  6) =     13.37640  eV     1   --> A_1  D_1  S_1  
     e(  7 -  7) =     16.40002  eV     1   --> B_2  D_4  S_4  
     e(  8 -  8) =     17.21048  eV     1   --> A_1  D_1  S_1  
     e(  9 -  9) =     18.01446  eV     1   --> B_1  D_3  S_3  
     e( 10 - 10) =     22.28961  eV     1   --> A_2  D_2  S_2  
     e( 11 - 11) =     24.45261  eV     1   --> B_1  D_3  S_3  
     e( 12 - 12) =     24.55631  eV     1   --> A_1  D_1  S_1  
     e( 13 - 13) =     25.08735  eV     1   --> B_2  D_4  S_4  
     e( 14 - 14) =     30.26732  eV     1   --> A_1  D_1  S_1  
     e( 15 - 15) =     31.45513  eV     1   --> B_2  D_4  S_4  
     e( 16 - 16) =     32.71346  eV     1   --> A_1  D_1  S_1  
     e( 17 - 17) =     36.74674  eV     1   --> A_1  D_1  S_1  
     e( 18 - 18) =     37.31768  eV     1   --> B_1  D_3  S_3  
     e( 19 - 19) =     41.54821  eV     1   --> B_1  D_3  S_3  
     e( 20 - 20) =     42.36697  eV     1   --> A_1  D_1  S_1  

 **************************************************************************

 **************************************************************************

                    xk=(   0.00000,   0.46188,   0.00000  )

     Band symmetry, C_2v (mm2)  point group:

     e(  1 -  1) =    -38.79068  eV     1   --> A_1  D_1  S_1  
     e(  2 -  2) =    -13.54338  eV     1   --> A_1  D_1  S_1  
     e(  3 -  3) =    -13.01223  eV     1   --> B_2  D_4  S_4  
     e(  4 -  4) =    -12.85202  eV     1   --> B_1  D_3  S_3  
     e(  5 -  5) =     10.06528  eV     1   --> A_1  D_1  S_1  
     e(  6 -  6) =     13.21923  eV     1   --> A_1  D_1  S_1  
     e(  7 -  7) =     16.35354  eV     1   --> B_2  D_4  S_4  
     e(  8 -  8) =     17.15825  eV     1   --> A_1  D_1  S_1  
     e(  9 -  9) =     18.01272  eV     1   --> B_1  D_3  S_3  
     e( 10 - 10) =     22.26690  eV     1   --> A_2  D_2  S_2  
     e( 11 - 11) =     24.50801  eV     1   --> B_1  D_3  S_3  
     e( 12 - 12) =     24.73949  eV     1   --> A_1  D_1  S_1  
     e( 13 - 13) =     25.03242  eV     1   --> B_2  D_4  S_4  
     e( 14 - 14) =     30.19788  eV     1   --> A_1  D_1  S_1  
     e( 15 - 15) =     31.63405  eV     1   --> B_2  D_4  S_4  
     e( 16 - 16) =     32.58850  eV     1   --> A_1  D_1  S_1  
     e( 17 - 17) =     37.05652  eV     1   --> A_1  D_1  S_1  
     e( 18 - 18) =     37.67393  eV     1   --> B_1  D_3  S_3  
     e( 19 - 19) =     41.29672  eV     1   --> B_1  D_3  S_3  
     e( 20 - 20) =     42.19714  eV     1   --> A_1  D_1  S_1  

 **************************************************************************

 **************************************************************************

                    xk=(   0.00000,   0.47631,   0.00000  )

     Band symmetry, C_2v (mm2)  point group:

     e(  1 -  1) =    -38.78773  eV     1   --> A_1  D_1  S_1  
     e(  2 -  2) =    -13.56392  eV     1   --> A_1  D_1  S_1  
     e(  3 -  3) =    -13.00830  eV     1   --> B_2  D_4  S_4  
     e(  4 -  4) =    -12.85696  eV     1   --> B_1  D_3  S_3  
     e(  5 -  5) =     10.20771  eV     1   --> A_1  D_1  S_1  
     e(  6 -  6) =     13.06543  eV     1   --> A_1  D_1  S_1  
     e(  7 -  7) =     16.31217  eV     1   --> B_2  D_4  S_4  
     e(  8 -  8) =     17.10973  eV     1   --> A_1  D_1  S_1  
     e(  9 -  9) =     18.00896  eV     1   --> B_1  D_3  S_3  
     e( 10 - 10) =     22.24663  eV     1   --> A_2  D_2  S_2  
     e( 11 - 11) =     24.56095  eV     1   --> B_1  D_3  S_3  
     e( 12 - 12) =     24.92140  eV     1   --> A_1  D_1  S_1  
     e( 13 - 13) =     24.98050  eV     1   --> B_2  D_4  S_4  
     e( 14 - 14) =     30.11553  eV     1   --> A_1  D_1  S_1  
     e( 15 - 15) =     31.80207  eV     1   --> B_2  D_4  S_4  
     e( 16 - 16) =     32.47552  eV     1   --> A_1  D_1  S_1  
     e( 17 - 17) =     37.35173  eV     1   --> A_1  D_1  S_1  
     e( 18 - 18) =     38.01224  eV     1   --> B_1  D_3  S_3  
     e( 19 - 19) =     41.06927  eV     1   --> B_1  D_3  S_3  
     e( 20 - 20) =     42.02534  eV     1   --> A_1  D_1  S_1  

 **************************************************************************

 **************************************************************************

                    xk=(   0.00000,   0.49075,   0.00000  )

     Band symmetry, C_2v (mm2)  point group:

     e(  1 -  1) =    -38.78514  eV     1   --> A_1  D_1  S_1  
     e(  2 -  2) =    -13.58194  eV     1   --> A_1  D_1  S_1  
     e(  3 -  3) =    -13.00484  eV     1   --> B_2  D_4  S_4  
     e(  4 -  4) =    -12.86131  eV     1   --> B_1  D_3  S_3  
     e(  5 -  5) =     10.34629  eV     1   --> A_1  D_1  S_1  
     e(  6 -  6) =     12.91729  eV     1   --> A_1  D_1  S_1  
     e(  7 -  7) =     16.27625  eV     1   --> B_2  D_4  S_4  
     e(  8 -  8) =     17.06598  eV     1   --> A_1  D_1  S_1  
     e(  9 -  9) =     18.00604  eV     1   --> B_1  D_3  S_3  
     e( 10 - 10) =     22.22888  eV     1   --> A_2  D_2  S_2  
     e( 11 - 11) =     24.61016  eV     1   --> B_1  D_3  S_3  
     e( 12 - 12) =     24.93483  eV     1   --> B_2  D_4  S_4  
     e( 13 - 13) =     25.09800  eV     1   --> A_1  D_1  S_1  
     e( 14 - 14) =     30.02421  eV     1   --> A_1  D_1  S_1  
     e( 15 - 15) =     31.95657  eV     1   --> B_2  D_4  S_4  
     e( 16 - 16) =     32.37762  eV     1   --> A_1  D_1  S_1  
     e( 17 - 17) =     37.63039  eV     1   --> A_1  D_1  S_1  
     e( 18 - 18) =     38.33190  eV     1   --> B_1  D_3  S_3  
     e( 19 - 19) =     40.86744  eV     1   --> B_1  D_3  S_3  
     e( 20 - 20) =     41.85989  eV     1   --> A_1  D_1  S_1  

 **************************************************************************

 **************************************************************************

                    xk=(   0.00000,   0.50518,   0.00000  )

     Band symmetry, C_2v (mm2)  point group:

     e(  1 -  1) =    -38.78291  eV     1   --> A_1  D_1  S_1  
     e(  2 -  2) =    -13.59735  eV     1   --> A_1  D_1  S_1  
     e(  3 -  3) =    -13.00187  eV     1   --> B_2  D_4  S_4  
     e(  4 -  4) =    -12.86502  eV     1   --> B_1  D_3  S_3  
     e(  5 -  5) =     10.47851  eV     1   --> A_1  D_1  S_1  
     e(  6 -  6) =     12.77722  eV     1   --> A_1  D_1  S_1  
     e(  7 -  7) =     16.24580  eV     1   --> B_2  D_4  S_4  
     e(  8 -  8) =     17.02773  eV     1   --> A_1  D_1  S_1  
     e(  9 -  9) =     18.00314  eV     1   --> B_1  D_3  S_3  
     e( 10 - 10) =     22.21373  eV     1   --> A_2  D_2  S_2  
     e( 11 - 11) =     24.65429  eV     1   --> B_1  D_3  S_3  
     e( 12 - 12) =     24.89515  eV     1   --> B_2  D_4  S_4  
     e( 13 - 13) =     25.26418  eV     1   --> A_1  D_1  S_1  
     e( 14 - 14) =     29.92819  eV     1   --> A_1  D_1  S_1  
     e( 15 - 15) =     32.09424  eV     1   --> B_2  D_4  S_4  
     e( 16 - 16) =     32.29709  eV     1   --> A_1  D_1  S_1  
     e( 17 - 17) =     37.88787  eV     1   --> A_1  D_1  S_1  
     e( 18 - 18) =     38.62721  eV     1   --> B_1  D_3  S_3  
     e( 19 - 19) =     40.69148  eV     1   --> B_1  D_3  S_3  
     e( 20 - 20) =     41.70389  eV     1   --> A_1  D_1  S_1  

 **************************************************************************

 **************************************************************************

                    xk=(   0.00000,   0.51962,   0.00000  )

     Band symmetry, C_2v (mm2)  point group:

     e(  1 -  1) =    -38.78107  eV     1   --> A_1  D_1  S_1  
     e(  2 -  2) =    -13.61008  eV     1   --> A_1  D_1  S_1  
     e(  3 -  3) =    -12.99941  eV     1   --> B_2  D_4  S_4  
     e(  4 -  4) =    -12.86809  eV     1   --> B_1  D_3  S_3  
     e(  5 -  5) =     10.60092  eV     1   --> A_1  D_1  S_1  
     e(  6 -  6) =     12.64844  eV     1   --> A_1  D_1  S_1  
     e(  7 -  7) =     16.22085  eV     1   --> B_2  D_4  S_4  
     e(  8 -  8) =     16.99561  eV     1   --> A_1  D_1  S_1  
     e(  9 -  9) =     18.00046  eV     1   --> B_1  D_3  S_3  
     e( 10 - 10) =     22.20125  eV     1   --> A_2  D_2  S_2  
     e( 11 - 11) =     24.69215  eV     1   --> B_1  D_3  S_3  
     e( 12 - 12) =     24.86196  eV     1   --> B_2  D_4  S_4  
     e( 13 - 13) =     25.41386  eV     1   --> A_1  D_1  S_1  
     e( 14 - 14) =     29.83362  eV     1   --> A_1  D_1  S_1  
     e( 15 - 15) =     32.21198  eV     1   --> B_2  D_4  S_4  
     e( 16 - 16) =     32.23148  eV     1   --> A_1  D_1  S_1  
     e( 17 - 17) =     38.11782  eV     1   --> A_1  D_1  S_1  
     e( 18 - 18) =     38.89138  eV     1   --> B_1  D_3  S_3  
     e( 19 - 19) =     40.54177  eV     1   --> B_1  D_3  S_3  
     e( 20 - 20) =     41.55780  eV     1   --> A_1  D_1  S_1  

 **************************************************************************

 **************************************************************************

                    xk=(   0.00000,   0.53405,   0.00000  )

     Band symmetry, C_2v (mm2)  point group:

     e(  1 -  1) =    -38.77963  eV     1   --> A_1  D_1  S_1  
     e(  2 -  2) =    -13.62004  eV     1   --> A_1  D_1  S_1  
     e(  3 -  3) =    -12.99749  eV     1   --> B_2  D_4  S_4  
     e(  4 -  4) =    -12.87050  eV     1   --> B_1  D_3  S_3  
     e(  5 -  5) =     10.70823  eV     1   --> A_1  D_1  S_1  
     e(  6 -  6) =     12.53586  eV     1   --> A_1  D_1  S_1  
     e(  7 -  7) =     16.20140  eV     1   --> B_2  D_4  S_4  
     e(  8 -  8) =     16.97008  eV     1   --> A_1  D_1  S_1  
     e(  9 -  9) =     17.99816  eV     1   --> B_1  D_3  S_3  
     e( 10 - 10) =     22.19148  eV     1   --> A_2  D_2  S_2  
     e( 11 - 11) =     24.72273  eV     1   --> B_1  D_3  S_3  
     e( 12 - 12) =     24.83453  eV     1   --> B_2  D_4  S_4  
     e( 13 - 13) =     25.54059  eV     1   --> A_1  D_1  S_1  
     e( 14 - 14) =     29.74740  eV     1   --> A_1  D_1  S_1  
     e( 15 - 15) =     32.18161  eV     1   --> A_1  D_1  S_1  
     e( 16 - 16) =     32.30686  eV     1   --> B_2  D_4  S_4  
     e( 17 - 17) =     38.31220  eV     1   --> A_1  D_1  S_1  
     e( 18 - 18) =     39.11627  eV     1   --> B_1  D_3  S_3  
     e( 19 - 19) =     40.41873  eV     1   --> B_1  D_3  S_3  
     e( 20 - 20) =     41.42658  eV     1   --> A_1  D_1  S_1  

 **************************************************************************

 **************************************************************************

                    xk=(   0.00000,   0.54848,   0.00000  )

     Band symmetry, C_2v (mm2)  point group:

     e(  1 -  1) =    -38.77858  eV     1   --> A_1  D_1  S_1  
     e(  2 -  2) =    -13.62719  eV     1   --> A_1  D_1  S_1  
     e(  3 -  3) =    -12.99610  eV     1   --> B_2  D_4  S_4  
     e(  4 -  4) =    -12.87223  eV     1   --> B_1  D_3  S_3  
     e(  5 -  5) =     10.79441  eV     1   --> A_1  D_1  S_1  
     e(  6 -  6) =     12.44668  eV     1   --> A_1  D_1  S_1  
     e(  7 -  7) =     16.18751  eV     1   --> B_2  D_4  S_4  
     e(  8 -  8) =     16.95164  eV     1   --> A_1  D_1  S_1  
     e(  9 -  9) =     17.99687  eV     1   --> B_1  D_3  S_3  
     e( 10 - 10) =     22.18448  eV     1   --> A_2  D_2  S_2  
     e( 11 - 11) =     24.74525  eV     1   --> B_1  D_3  S_3  
     e( 12 - 12) =     24.81554  eV     1   --> B_2  D_4  S_4  
     e( 13 - 13) =     25.63769  eV     1   --> A_1  D_1  S_1  
     e( 14 - 14) =     29.67868  eV     1   --> A_1  D_1  S_1  
     e( 15 - 15) =     32.14686  eV     1   --> A_1  D_1  S_1  
     e( 16 - 16) =     32.37671  eV     1   --> B_2  D_4  S_4  
     e( 17 - 17) =     38.46328  eV     1   --> A_1  D_1  S_1  
     e( 18 - 18) =     39.29804  eV     1   --> B_1  D_3  S_3  
     e( 19 - 19) =     40.32433  eV     1   --> B_1  D_3  S_3  
     e( 20 - 20) =     41.32418  eV     1   --> A_1  D_1  S_1  

 **************************************************************************

 **************************************************************************

                    xk=(   0.00000,   0.56292,   0.00000  )

     Band symmetry, C_2v (mm2)  point group:

     e(  1 -  1) =    -38.77796  eV     1   --> A_1  D_1  S_1  
     e(  2 -  2) =    -13.63150  eV     1   --> A_1  D_1  S_1  
     e(  3 -  3) =    -12.99527  eV     1   --> B_2  D_4  S_4  
     e(  4 -  4) =    -12.87327  eV     1   --> B_1  D_3  S_3  
     e(  5 -  5) =     10.85107  eV     1   --> A_1  D_1  S_1  
     e(  6 -  6) =     12.38796  eV     1   --> A_1  D_1  S_1  
     e(  7 -  7) =     16.17917  eV     1   --> B_2  D_4  S_4  
     e(  8 -  8) =     16.94044  eV     1   --> A_1  D_1  S_1  
     e(  9 -  9) =     17.99579  eV     1   --> B_1  D_3  S_3  
     e( 10 - 10) =     22.18027  eV     1   --> A_2  D_2  S_2  
     e( 11 - 11) =     24.75899  eV     1   --> B_1  D_3  S_3  
     e( 12 - 12) =     24.80406  eV     1   --> B_2  D_4  S_4  
     e( 13 - 13) =     25.69886  eV     1   --> A_1  D_1  S_1  
     e( 14 - 14) =     29.63399  eV     1   --> A_1  D_1  S_1  
     e( 15 - 15) =     32.12640  eV     1   --> A_1  D_1  S_1  
     e( 16 - 16) =     32.41938  eV     1   --> B_2  D_4  S_4  
     e( 17 - 17) =     38.55978  eV     1   --> A_1  D_1  S_1  
     e( 18 - 18) =     39.41293  eV     1   --> B_1  D_3  S_3  
     e( 19 - 19) =     40.26188  eV     1   --> B_1  D_3  S_3  
     e( 20 - 20) =     41.25720  eV     1   --> A_1  D_1  S_1  

 **************************************************************************

 **************************************************************************

                    xk=(   0.00000,   0.57735,   0.00000  )

     point group D_2h (mmm) 
     there are  8 classes
     the character table:

       E     C2    C2'   C2''  i     s_v   s_v'  s_v''
A_g    1.00  1.00  1.00  1.00  1.00  1.00  1.00  1.00
B_1g   1.00  1.00 -1.00 -1.00  1.00  1.00 -1.00 -1.00
B_2g   1.00 -1.00  1.00 -1.00  1.00 -1.00  1.00 -1.00
B_3g   1.00 -1.00 -1.00  1.00  1.00 -1.00 -1.00  1.00
A_u    1.00  1.00  1.00  1.00 -1.00 -1.00 -1.00 -1.00
B_1u   1.00  1.00 -1.00 -1.00 -1.00 -1.00  1.00  1.00
B_2u   1.00 -1.00  1.00 -1.00 -1.00  1.00 -1.00  1.00
B_3u   1.00 -1.00 -1.00  1.00 -1.00  1.00  1.00 -1.00

     the symmetry operations in each class and the name of the first element:

     E        1
                                                                 
     C2       2
                                                                 
     C2'      4
                                                                 
     C2''     3
                                                                 
     i        5
                                                                 
     s_v      6
                                                                 
     s_v'     8
                                                                 
     s_v''    7
                                                                 

     Band symmetry, D_2h (mmm)  point group:

     e(  1 -  1) =    -38.77775  eV     1   --> A_g            
     e(  2 -  2) =    -13.63294  eV     1   --> B_3u           
     e(  3 -  3) =    -12.99499  eV     1   --> B_1u           
     e(  4 -  4) =    -12.87362  eV     1   --> B_2u           
     e(  5 -  5) =     10.87085  eV     1   --> A_g            
     e(  6 -  6) =     12.36733  eV     1   --> B_3u           
     e(  7 -  7) =     16.17639  eV     1   --> B_2g           
     e(  8 -  8) =     16.93669  eV     1   --> A_g            
     e(  9 -  9) =     17.99543  eV     1   --> B_2u           
     e( 10 - 10) =     22.17886  eV     1   --> B_3g           
     e( 11 - 11) =     24.76361  eV     1   --> B_1g           
     e( 12 - 12) =     24.80022  eV     1   --> B_1u           
     e( 13 - 13) =     25.71977  eV     1   --> A_g            
     e( 14 - 14) =     29.61841  eV     1   --> B_3u           
     e( 15 - 15) =     32.11953  eV     1   --> A_g            
     e( 16 - 16) =     32.43373  eV     1   --> B_2g           
     e( 17 - 17) =     38.59308  eV     1   --> A_g            
     e( 18 - 18) =     39.45348  eV     1   --> B_1g           
     e( 19 - 19) =     40.23952  eV     1   --> B_2u           
     e( 20 - 20) =     41.23078  eV     1   --> B_3u           

 **************************************************************************

 **************************************************************************

                    xk=(   0.01667,   0.57735,   0.00000  )

     point group C_2v (mm2) 
     there are  4 classes
     the character table:

       E     C2    s_v   s_v' 
A_1    1.00  1.00  1.00  1.00
A_2    1.00  1.00 -1.00 -1.00
B_1    1.00 -1.00  1.00 -1.00
B_2    1.00 -1.00 -1.00  1.00

     the symmetry operations in each class and the name of the first element:

     E        1
                                                                 
     C2       2
                                                                 
     s_v      4
                                                                 
     s_v'     3
                                                                 

     Band symmetry, C_2v (mm2)  point group:

     e(  1 -  1) =    -38.77766  eV     1   --> A_1  D_1  S_1  
     e(  2 -  2) =    -13.63210  eV     1   --> B_2  D_4  S_4  
     e(  3 -  3) =    -12.99487  eV     1   --> B_1  D_3  S_3  
     e(  4 -  4) =    -12.87544  eV     1   --> A_1  D_1  S_1  
     e(  5 -  5) =     10.87659  eV     1   --> A_1  D_1  S_1  
     e(  6 -  6) =     12.36819  eV     1   --> B_2  D_4  S_4  
     e(  7 -  7) =     16.18058  eV     1   --> A_2  D_2  S_2  
     e(  8 -  8) =     16.89736  eV     1   --> A_1  D_1  S_1  
     e(  9 -  9) =     18.03372  eV     1   --> A_1  D_1  S_1  
     e( 10 - 10) =     22.12947  eV     1   --> B_1  D_3  S_3  
     e( 11 - 11) =     24.74513  eV     1   --> B_2  D_4  S_4  
     e( 12 - 12) =     24.85709  eV     1   --> B_1  D_3  S_3  
     e( 13 - 13) =     25.71117  eV     1   --> A_1  D_1  S_1  
     e( 14 - 14) =     29.64450  eV     1   --> B_2  D_4  S_4  
     e( 15 - 15) =     32.13509  eV     1   --> A_1  D_1  S_1  
     e( 16 - 16) =     32.42870  eV     1   --> A_2  D_2  S_2  
     e( 17 - 17) =     38.56847  eV     1   --> A_1  D_1  S_1  
     e( 18 - 18) =     39.43818  eV     1   --> B_2  D_4  S_4  
     e( 19 - 19) =     40.25598  eV     1   --> A_1  D_1  S_1  
     e( 20 - 20) =     41.24002  eV     1   --> B_2  D_4  S_4  

 **************************************************************************

 **************************************************************************

                    xk=(   0.03333,   0.57735,   0.00000  )

     Band symmetry, C_2v (mm2)  point group:

     e(  1 -  1) =    -38.77739  eV     1   --> A_1  D_1  S_1  
     e(  2 -  2) =    -13.62959  eV     1   --> B_2  D_4  S_4  
     e(  3 -  3) =    -12.99451  eV     1   --> B_1  D_3  S_3  
     e(  4 -  4) =    -12.88086  eV     1   --> A_1  D_1  S_1  
     e(  5 -  5) =     10.89410  eV     1   --> A_1  D_1  S_1  
     e(  6 -  6) =     12.37201  eV     1   --> B_2  D_4  S_4  
     e(  7 -  7) =     16.19316  eV     1   --> A_2  D_2  S_2  
     e(  8 -  8) =     16.79253  eV     1   --> A_1  D_1  S_1  
     e(  9 -  9) =     18.13686  eV     1   --> A_1  D_1  S_1  
     e( 10 - 10) =     21.99271  eV     1   --> B_1  D_3  S_3  
     e( 11 - 11) =     24.69123  eV     1   --> B_2  D_4  S_4  
     e( 12 - 12) =     25.01624  eV     1   --> B_1  D_3  S_3  
     e( 13 - 13) =     25.68567  eV     1   --> A_1  D_1  S_1  
     e( 14 - 14) =     29.72157  eV     1   --> B_2  D_4  S_4  
     e( 15 - 15) =     32.18164  eV     1   --> A_1  D_1  S_1  
     e( 16 - 16) =     32.41384  eV     1   --> A_2  D_2  S_2  
     e( 17 - 17) =     38.49833  eV     1   --> A_1  D_1  S_1  
     e( 18 - 18) =     39.41046  eV     1   --> B_2  D_4  S_4  
     e( 19 - 19) =     40.30142  eV     1   --> A_1  D_1  S_1  
     e( 20 - 20) =     41.26764  eV     1   --> B_2  D_4  S_4  

 **************************************************************************

 **************************************************************************

                    xk=(   0.05000,   0.57735,   0.00000  )

     Band symmetry, C_2v (mm2)  point group:

     e(  1 -  1) =    -38.77693  eV     1   --> A_1  D_1  S_1  
     e(  2 -  2) =    -13.62540  eV     1   --> B_2  D_4  S_4  
     e(  3 -  3) =    -12.99391  eV     1   --> B_1  D_3  S_3  
     e(  4 -  4) =    -12.88982  eV     1   --> A_1  D_1  S_1  
     e(  5 -  5) =     10.92328  eV     1   --> A_1  D_1  S_1  
     e(  6 -  6) =     12.37842  eV     1   --> B_2  D_4  S_4  
     e(  7 -  7) =     16.21412  eV     1   --> A_2  D_2  S_2  
     e(  8 -  8) =     16.64607  eV     1   --> A_1  D_1  S_1  
     e(  9 -  9) =     18.28224  eV     1   --> A_1  D_1  S_1  
     e( 10 - 10) =     21.79342  eV     1   --> B_1  D_3  S_3  
     e( 11 - 11) =     24.60537  eV     1   --> B_2  D_4  S_4  
     e( 12 - 12) =     25.25365  eV     1   --> B_1  D_3  S_3  
     e( 13 - 13) =     25.64337  eV     1   --> A_1  D_1  S_1  
     e( 14 - 14) =     29.84607  eV     1   --> B_2  D_4  S_4  
     e( 15 - 15) =     32.25918  eV     1   --> A_1  D_1  S_1  
     e( 16 - 16) =     32.38920  eV     1   --> A_2  D_2  S_2  
     e( 17 - 17) =     38.39153  eV     1   --> A_1  D_1  S_1  
     e( 18 - 18) =     39.36615  eV     1   --> B_2  D_4  S_4  
     e( 19 - 19) =     40.36603  eV     1   --> A_1  D_1  S_1  
     e( 20 - 20) =     41.31282  eV     1   --> B_2  D_4  S_4  

 **************************************************************************

 **************************************************************************

                    xk=(   0.06667,   0.57735,   0.00000  )

     Band symmetry, C_2v (mm2)  point group:

     e(  1 -  1) =    -38.77631  eV     1   --> A_1  D_1  S_1  
     e(  2 -  2) =    -13.61957  eV     1   --> B_2  D_4  S_4  
     e(  3 -  3) =    -12.99309  eV     1   --> B_1  D_3  S_3  
     e(  4 -  4) =    -12.90219  eV     1   --> A_1  D_1  S_1  
     e(  5 -  5) =     10.96379  eV     1   --> A_1  D_1  S_1  
     e(  6 -  6) =     12.38741  eV     1   --> B_2  D_4  S_4  
     e(  7 -  7) =     16.24345  eV     1   --> A_2  D_2  S_2  
     e(  8 -  8) =     16.47406  eV     1   --> A_1  D_1  S_1  
     e(  9 -  9) =     18.45146  eV     1   --> A_1  D_1  S_1  
     e( 10 - 10) =     21.55520  eV     1   --> B_1  D_3  S_3  
     e( 11 - 11) =     24.49254  eV     1   --> B_2  D_4  S_4  
     e( 12 - 12) =     25.54339  eV     1   --> B_1  D_3  S_3  
     e( 13 - 13) =     25.58456  eV     1   --> A_1  D_1  S_1  
     e( 14 - 14) =     30.01269  eV     1   --> B_2  D_4  S_4  
     e( 15 - 15) =     32.35493  eV     1   --> A_2  D_2  S_2  
     e( 16 - 16) =     32.36641  eV     1   --> A_1  D_1  S_1  
     e( 17 - 17) =     38.25790  eV     1   --> A_1  D_1  S_1  
     e( 18 - 18) =     39.30739  eV     1   --> B_2  D_4  S_4  
     e( 19 - 19) =     40.43725  eV     1   --> A_1  D_1  S_1  
     e( 20 - 20) =     41.37130  eV     1   --> B_2  D_4  S_4  

 **************************************************************************

 **************************************************************************

                    xk=(   0.08333,   0.57735,   0.00000  )

     Band symmetry, C_2v (mm2)  point group:

     e(  1 -  1) =    -38.77553  eV     1   --> A_1  D_1  S_1  
     e(  2 -  2) =    -13.61212  eV     1   --> B_2  D_4  S_4  
     e(  3 -  3) =    -12.99207  eV     1   --> B_1  D_3  S_3  
     e(  4 -  4) =    -12.91782  eV     1   --> A_1  D_1  S_1  
     e(  5 -  5) =     11.01554  eV     1   --> A_1  D_1  S_1  
     e(  6 -  6) =     12.39914  eV     1   --> B_2  D_4  S_4  
     e(  7 -  7) =     16.28111  eV     1   --> A_2  D_2  S_2  
     e(  8 -  8) =     16.28635  eV     1   --> A_1  D_1  S_1  
     e(  9 -  9) =     18.63691  eV     1   --> A_1  D_1  S_1  
     e( 10 - 10) =     21.29510  eV     1   --> B_1  D_3  S_3  
     e( 11 - 11) =     24.35829  eV     1   --> B_2  D_4  S_4  
     e( 12 - 12) =     25.50970  eV     1   --> A_1  D_1  S_1  
     e( 13 - 13) =     25.86904  eV     1   --> B_1  D_3  S_3  
     e( 14 - 14) =     30.21590  eV     1   --> B_2  D_4  S_4  
     e( 15 - 15) =     32.31125  eV     1   --> A_2  D_2  S_2  
     e( 16 - 16) =     32.50299  eV     1   --> A_1  D_1  S_1  
     e( 17 - 17) =     38.10583  eV     1   --> A_1  D_1  S_1  
     e( 18 - 18) =     39.23954  eV     1   --> B_2  D_4  S_4  
     e( 19 - 19) =     40.50430  eV     1   --> A_1  D_1  S_1  
     e( 20 - 20) =     41.44194  eV     1   --> B_2  D_4  S_4  

 **************************************************************************

 **************************************************************************

                    xk=(   0.10000,   0.57735,   0.00000  )

     Band symmetry, C_2v (mm2)  point group:

     e(  1 -  1) =    -38.77462  eV     1   --> A_1  D_1  S_1  
     e(  2 -  2) =    -13.60307  eV     1   --> B_2  D_4  S_4  
     e(  3 -  3) =    -12.99086  eV     1   --> B_1  D_3  S_3  
     e(  4 -  4) =    -12.93649  eV     1   --> A_1  D_1  S_1  
     e(  5 -  5) =     11.07804  eV     1   --> A_1  D_1  S_1  
     e(  6 -  6) =     12.41291  eV     1   --> B_2  D_4  S_4  
     e(  7 -  7) =     16.08756  eV     1   --> A_1  D_1  S_1  
     e(  8 -  8) =     16.32703  eV     1   --> A_2  D_2  S_2  
     e(  9 -  9) =     18.83403  eV     1   --> A_1  D_1  S_1  
     e( 10 - 10) =     21.02407  eV     1   --> B_1  D_3  S_3  
     e( 11 - 11) =     24.20784  eV     1   --> B_2  D_4  S_4  
     e( 12 - 12) =     25.41907  eV     1   --> A_1  D_1  S_1  
     e( 13 - 13) =     26.21891  eV     1   --> B_1  D_3  S_3  
     e( 14 - 14) =     30.44943  eV     1   --> B_2  D_4  S_4  
     e( 15 - 15) =     32.25822  eV     1   --> A_2  D_2  S_2  
     e( 16 - 16) =     32.66750  eV     1   --> A_1  D_1  S_1  
     e( 17 - 17) =     37.94024  eV     1   --> A_1  D_1  S_1  
     e( 18 - 18) =     39.15627  eV     1   --> B_2  D_4  S_4  
     e( 19 - 19) =     40.55730  eV     1   --> A_1  D_1  S_1  
     e( 20 - 20) =     41.37214  eV     1   --> B_1  D_3  S_3  

 **************************************************************************

 **************************************************************************

                    xk=(   0.11667,   0.57735,   0.00000  )

     Band symmetry, C_2v (mm2)  point group:

     e(  1 -  1) =    -38.77357  eV     1   --> A_1  D_1  S_1  
     e(  2 -  2) =    -13.59245  eV     1   --> B_2  D_4  S_4  
     e(  3 -  3) =    -12.98949  eV     1   --> B_1  D_3  S_3  
     e(  4 -  4) =    -12.95796  eV     1   --> A_1  D_1  S_1  
     e(  5 -  5) =     11.15132  eV     1   --> A_1  D_1  S_1  
     e(  6 -  6) =     12.42974  eV     1   --> B_2  D_4  S_4  
     e(  7 -  7) =     15.88074  eV     1   --> A_1  D_1  S_1  
     e(  8 -  8) =     16.38127  eV     1   --> A_2  D_2  S_2  
     e(  9 -  9) =     19.04115  eV     1   --> A_1  D_1  S_1  
     e( 10 - 10) =     20.74914  eV     1   --> B_1  D_3  S_3  
[...]
     e(  9 -  9) =     19.22997  eV     1   --> B_1  D_3  S_3  
     e( 10 - 10) =     21.26084  eV     1   --> A_1  D_1  S_1  
     e( 11 - 11) =     22.88146  eV     1   --> A_1  D_1  S_1  
     e( 12 - 12) =     23.14401  eV     1   --> A_2  D_2  S_2  
     e( 13 - 13) =     23.58100  eV     1   --> B_2  D_4  S_4  
     e( 14 - 14) =     29.60270  eV     1   --> B_1  D_3  S_3  
     e( 15 - 15) =     33.33840  eV     1   --> B_2  D_4  S_4  
     e( 16 - 16) =     33.63640  eV     1   --> A_2  D_2  S_2  
     e( 17 - 17) =     35.74167  eV     1   --> A_2  D_2  S_2  
     e( 18 - 18) =     37.36862  eV     1   --> B_2  D_4  S_4  
     e( 19 - 19) =     39.13433  eV     1   --> A_1  D_1  S_1  
     e( 20 - 20) =     42.27078  eV     1   --> A_1  D_1  S_1  

 **************************************************************************

 **************************************************************************

                    xk=(   0.08333,   0.14434,   0.46396  )

     Band symmetry, C_2v (mm2)  point group:

     e(  1 -  1) =    -38.85477  eV     1   --> A_1  D_1  S_1  
     e(  2 -  2) =    -13.58100  eV     1   --> B_2  D_4  S_4  
     e(  3 -  3) =    -12.79440  eV     1   --> A_1  D_1  S_1  
     e(  4 -  4) =    -12.65132  eV     1   --> B_1  D_3  S_3  
     e(  5 -  5) =      9.96663  eV     1   --> B_2  D_4  S_4  
     e(  6 -  6) =     13.56085  eV     1   --> A_1  D_1  S_1  
     e(  7 -  7) =     17.62132  eV     1   --> A_2  D_2  S_2  
     e(  8 -  8) =     17.95080  eV     1   --> B_2  D_4  S_4  
     e(  9 -  9) =     19.39716  eV     1   --> B_1  D_3  S_3  
     e( 10 - 10) =     21.12720  eV     1   --> A_1  D_1  S_1  
     e( 11 - 11) =     22.82515  eV     1   --> A_1  D_1  S_1  
     e( 12 - 12) =     22.91711  eV     1   --> A_2  D_2  S_2  
     e( 13 - 13) =     23.28586  eV     1   --> B_2  D_4  S_4  
     e( 14 - 14) =     29.35613  eV     1   --> B_1  D_3  S_3  
     e( 15 - 15) =     33.48855  eV     1   --> B_2  D_4  S_4  
     e( 16 - 16) =     33.61102  eV     1   --> A_2  D_2  S_2  
     e( 17 - 17) =     35.60287  eV     1   --> A_2  D_2  S_2  
     e( 18 - 18) =     37.08760  eV     1   --> B_2  D_4  S_4  
     e( 19 - 19) =     39.40067  eV     1   --> A_1  D_1  S_1  
     e( 20 - 20) =     42.63846  eV     1   --> A_1  D_1  S_1  

 **************************************************************************

 **************************************************************************

                    xk=(   0.07500,   0.12990,   0.46396  )

     Band symmetry, C_2v (mm2)  point group:

     e(  1 -  1) =    -38.85931  eV     1   --> A_1  D_1  S_1  
     e(  2 -  2) =    -13.58880  eV     1   --> B_2  D_4  S_4  
     e(  3 -  3) =    -12.76140  eV     1   --> A_1  D_1  S_1  
     e(  4 -  4) =    -12.64253  eV     1   --> B_1  D_3  S_3  
     e(  5 -  5) =      9.96473  eV     1   --> B_2  D_4  S_4  
     e(  6 -  6) =     13.43181  eV     1   --> A_1  D_1  S_1  
     e(  7 -  7) =     17.89107  eV     1   --> A_2  D_2  S_2  
     e(  8 -  8) =     18.15461  eV     1   --> B_2  D_4  S_4  
     e(  9 -  9) =     19.56216  eV     1   --> B_1  D_3  S_3  
     e( 10 - 10) =     21.00541  eV     1   --> A_1  D_1  S_1  
     e( 11 - 11) =     22.68428  eV     1   --> A_2  D_2  S_2  
     e( 12 - 12) =     22.77386  eV     1   --> A_1  D_1  S_1  
     e( 13 - 13) =     22.99032  eV     1   --> B_2  D_4  S_4  
     e( 14 - 14) =     29.11009  eV     1   --> B_1  D_3  S_3  
     e( 15 - 15) =     33.57170  eV     1   --> A_2  D_2  S_2  
     e( 16 - 16) =     33.63663  eV     1   --> B_2  D_4  S_4  
     e( 17 - 17) =     35.49241  eV     1   --> A_2  D_2  S_2  
     e( 18 - 18) =     36.82179  eV     1   --> B_2  D_4  S_4  
     e( 19 - 19) =     39.63800  eV     1   --> A_1  D_1  S_1  
     e( 20 - 20) =     43.01656  eV     1   --> A_1  D_1  S_1  

 **************************************************************************

 **************************************************************************

                    xk=(   0.06667,   0.11547,   0.46396  )

     Band symmetry, C_2v (mm2)  point group:

     e(  1 -  1) =    -38.86344  eV     1   --> A_1  D_1  S_1  
     e(  2 -  2) =    -13.59594  eV     1   --> B_2  D_4  S_4  
     e(  3 -  3) =    -12.73076  eV     1   --> A_1  D_1  S_1  
     e(  4 -  4) =    -12.63470  eV     1   --> B_1  D_3  S_3  
     e(  5 -  5) =      9.96382  eV     1   --> B_2  D_4  S_4  
     e(  6 -  6) =     13.31445  eV     1   --> A_1  D_1  S_1  
     e(  7 -  7) =     18.16297  eV     1   --> A_2  D_2  S_2  
     e(  8 -  8) =     18.36743  eV     1   --> B_2  D_4  S_4  
     e(  9 -  9) =     19.72287  eV     1   --> B_1  D_3  S_3  
     e( 10 - 10) =     20.89582  eV     1   --> A_1  D_1  S_1  
     e( 11 - 11) =     22.44843  eV     1   --> A_2  D_2  S_2  
     e( 12 - 12) =     22.69606  eV     1   --> B_2  D_4  S_4  
     e( 13 - 13) =     22.72773  eV     1   --> A_1  D_1  S_1  
     e( 14 - 14) =     28.87422  eV     1   --> B_1  D_3  S_3  
     e( 15 - 15) =     33.52241  eV     1   --> A_2  D_2  S_2  
     e( 16 - 16) =     33.78344  eV     1   --> B_2  D_4  S_4  
     e( 17 - 17) =     35.40891  eV     1   --> A_2  D_2  S_2  
     e( 18 - 18) =     36.57347  eV     1   --> B_2  D_4  S_4  
     e( 19 - 19) =     39.84801  eV     1   --> A_1  D_1  S_1  
     e( 20 - 20) =     43.40189  eV     1   --> A_1  D_1  S_1  

 **************************************************************************

 **************************************************************************

                    xk=(   0.05833,   0.10104,   0.46396  )

     Band symmetry, C_2v (mm2)  point group:

     e(  1 -  1) =    -38.86718  eV     1   --> A_1  D_1  S_1  
     e(  2 -  2) =    -13.60237  eV     1   --> B_2  D_4  S_4  
     e(  3 -  3) =    -12.70282  eV     1   --> A_1  D_1  S_1  
     e(  4 -  4) =    -12.62780  eV     1   --> B_1  D_3  S_3  
     e(  5 -  5) =      9.96305  eV     1   --> B_2  D_4  S_4  
     e(  6 -  6) =     13.20906  eV     1   --> A_1  D_1  S_1  
     e(  7 -  7) =     18.43560  eV     1   --> A_2  D_2  S_2  
     e(  8 -  8) =     18.58836  eV     1   --> B_2  D_4  S_4  
     e(  9 -  9) =     19.87631  eV     1   --> B_1  D_3  S_3  
     e( 10 - 10) =     20.79866  eV     1   --> A_1  D_1  S_1  
     e( 11 - 11) =     22.20884  eV     1   --> A_2  D_2  S_2  
     e( 12 - 12) =     22.40348  eV     1   --> B_2  D_4  S_4  
     e( 13 - 13) =     22.68684  eV     1   --> A_1  D_1  S_1  
     e( 14 - 14) =     28.64904  eV     1   --> B_1  D_3  S_3  
     e( 15 - 15) =     33.46583  eV     1   --> A_2  D_2  S_2  
     e( 16 - 16) =     33.92840  eV     1   --> B_2  D_4  S_4  
     e( 17 - 17) =     35.34911  eV     1   --> A_2  D_2  S_2  
     e( 18 - 18) =     36.34035  eV     1   --> B_2  D_4  S_4  
     e( 19 - 19) =     40.03341  eV     1   --> A_1  D_1  S_1  
     e( 20 - 20) =     43.79122  eV     1   --> A_1  D_1  S_1  

 **************************************************************************

 **************************************************************************

                    xk=(   0.05000,   0.08660,   0.46396  )

     Band symmetry, C_2v (mm2)  point group:

     e(  1 -  1) =    -38.87047  eV     1   --> A_1  D_1  S_1  
     e(  2 -  2) =    -13.60804  eV     1   --> B_2  D_4  S_4  
     e(  3 -  3) =    -12.67791  eV     1   --> A_1  D_1  S_1  
     e(  4 -  4) =    -12.62184  eV     1   --> B_1  D_3  S_3  
     e(  5 -  5) =      9.96291  eV     1   --> B_2  D_4  S_4  
     e(  6 -  6) =     13.11630  eV     1   --> A_1  D_1  S_1  
     e(  7 -  7) =     18.70810  eV     1   --> A_2  D_2  S_2  
     e(  8 -  8) =     18.81682  eV     1   --> B_2  D_4  S_4  
     e(  9 -  9) =     20.01946  eV     1   --> B_1  D_3  S_3  
     e( 10 - 10) =     20.71414  eV     1   --> A_1  D_1  S_1  
     e( 11 - 11) =     21.96521  eV     1   --> A_2  D_2  S_2  
     e( 12 - 12) =     22.11252  eV     1   --> B_2  D_4  S_4  
     e( 13 - 13) =     22.65119  eV     1   --> A_1  D_1  S_1  
     e( 14 - 14) =     28.43953  eV     1   --> B_1  D_3  S_3  
     e( 15 - 15) =     33.40548  eV     1   --> A_2  D_2  S_2  
     e( 16 - 16) =     34.07178  eV     1   --> B_2  D_4  S_4  
     e( 17 - 17) =     35.30742  eV     1   --> A_2  D_2  S_2  
     e( 18 - 18) =     36.12424  eV     1   --> B_2  D_4  S_4  
     e( 19 - 19) =     40.19293  eV     1   --> A_1  D_1  S_1  
     e( 20 - 20) =     44.18134  eV     1   --> A_1  D_1  S_1  

 **************************************************************************

 **************************************************************************

                    xk=(   0.04167,   0.07217,   0.46396  )

     Band symmetry, C_2v (mm2)  point group:

     e(  1 -  1) =    -38.87331  eV     1   --> A_1  D_1  S_1  
     e(  2 -  2) =    -13.61293  eV     1   --> B_2  D_4  S_4  
     e(  3 -  3) =    -12.65631  eV     1   --> A_1  D_1  S_1  
     e(  4 -  4) =    -12.61681  eV     1   --> B_1  D_3  S_3  
     e(  5 -  5) =      9.96250  eV     1   --> B_2  D_4  S_4  
     e(  6 -  6) =     13.03692  eV     1   --> A_1  D_1  S_1  
     e(  7 -  7) =     18.97981  eV     1   --> A_2  D_2  S_2  
     e(  8 -  8) =     19.05163  eV     1   --> B_2  D_4  S_4  
     e(  9 -  9) =     20.14907  eV     1   --> B_1  D_3  S_3  
     e( 10 - 10) =     20.64241  eV     1   --> A_1  D_1  S_1  
     e( 11 - 11) =     21.71854  eV     1   --> A_2  D_2  S_2  
     e( 12 - 12) =     21.82432  eV     1   --> B_2  D_4  S_4  
     e( 13 - 13) =     22.62090  eV     1   --> A_1  D_1  S_1  
     e( 14 - 14) =     28.25103  eV     1   --> B_1  D_3  S_3  
     e( 15 - 15) =     33.34756  eV     1   --> A_2  D_2  S_2  
     e( 16 - 16) =     34.21195  eV     1   --> B_2  D_4  S_4  
     e( 17 - 17) =     35.27933  eV     1   --> A_2  D_2  S_2  
     e( 18 - 18) =     35.92154  eV     1   --> B_2  D_4  S_4  
     e( 19 - 19) =     40.32629  eV     1   --> A_1  D_1  S_1  
     e( 20 - 20) =     44.56014  eV     1   --> B_1  D_3  S_3  

 **************************************************************************

 **************************************************************************

                    xk=(   0.03333,   0.05774,   0.46396  )

     Band symmetry, C_2v (mm2)  point group:

     e(  1 -  1) =    -38.87567  eV     1   --> A_1  D_1  S_1  
     e(  2 -  2) =    -13.61698  eV     1   --> B_2  D_4  S_4  
     e(  3 -  3) =    -12.63828  eV     1   --> A_1  D_1  S_1  
     e(  4 -  4) =    -12.61270  eV     1   --> B_1  D_3  S_3  
     e(  5 -  5) =      9.96196  eV     1   --> B_2  D_4  S_4  
     e(  6 -  6) =     12.97116  eV     1   --> A_1  D_1  S_1  
     e(  7 -  7) =     19.24907  eV     1   --> A_2  D_2  S_2  
     e(  8 -  8) =     19.29167  eV     1   --> B_2  D_4  S_4  
     e(  9 -  9) =     20.26165  eV     1   --> B_1  D_3  S_3  
     e( 10 - 10) =     20.58359  eV     1   --> A_1  D_1  S_1  
     e( 11 - 11) =     21.46989  eV     1   --> A_2  D_2  S_2  
     e( 12 - 12) =     21.54048  eV     1   --> B_2  D_4  S_4  
     e( 13 - 13) =     22.59597  eV     1   --> A_1  D_1  S_1  
     e( 14 - 14) =     28.08887  eV     1   --> B_1  D_3  S_3  
     e( 15 - 15) =     33.29439  eV     1   --> A_2  D_2  S_2  
     e( 16 - 16) =     34.34891  eV     1   --> B_2  D_4  S_4  
     e( 17 - 17) =     35.26154  eV     1   --> A_2  D_2  S_2  
     e( 18 - 18) =     35.73251  eV     1   --> B_2  D_4  S_4  
     e( 19 - 19) =     40.43458  eV     1   --> A_1  D_1  S_1  
     e( 20 - 20) =     44.93485  eV     1   --> B_1  D_3  S_3  

 **************************************************************************

 **************************************************************************

                    xk=(   0.02500,   0.04330,   0.46396  )

     Band symmetry, C_2v (mm2)  point group:

     e(  1 -  1) =    -38.87752  eV     1   --> A_1  D_1  S_1  
     e(  2 -  2) =    -13.62016  eV     1   --> B_2  D_4  S_4  
     e(  3 -  3) =    -12.62403  eV     1   --> A_1  D_1  S_1  
     e(  4 -  4) =    -12.60951  eV     1   --> B_1  D_3  S_3  
     e(  5 -  5) =      9.96164  eV     1   --> B_2  D_4  S_4  
     e(  6 -  6) =     12.91960  eV     1   --> A_1  D_1  S_1  
     e(  7 -  7) =     19.51333  eV     1   --> A_2  D_2  S_2  
     e(  8 -  8) =     19.53456  eV     1   --> B_2  D_4  S_4  
     e(  9 -  9) =     20.35375  eV     1   --> B_1  D_3  S_3  
     e( 10 - 10) =     20.53775  eV     1   --> A_1  D_1  S_1  
     e( 11 - 11) =     21.22103  eV     1   --> A_2  D_2  S_2  
     e( 12 - 12) =     21.26350  eV     1   --> B_2  D_4  S_4  
     e( 13 - 13) =     22.57652  eV     1   --> A_1  D_1  S_1  
     e( 14 - 14) =     27.95598  eV     1   --> B_1  D_3  S_3  
     e( 15 - 15) =     33.24955  eV     1   --> A_2  D_2  S_2  
     e( 16 - 16) =     34.48172  eV     1   --> B_2  D_4  S_4  
     e( 17 - 17) =     35.25080  eV     1   --> A_2  D_2  S_2  
     e( 18 - 18) =     35.56036  eV     1   --> B_2  D_4  S_4  
     e( 19 - 19) =     40.51811  eV     1   --> A_1  D_1  S_1  
     e( 20 - 20) =     45.30192  eV     1   --> B_1  D_3  S_3  

 **************************************************************************

 **************************************************************************

                    xk=(   0.01667,   0.02887,   0.46396  )

     Band symmetry, C_2v (mm2)  point group:

     e(  1 -  1) =    -38.87885  eV     1   --> A_1  D_1  S_1  
     e(  2 -  2) =    -13.62245  eV     1   --> B_2  D_4  S_4  
     e(  3 -  3) =    -12.61373  eV     1   --> A_1  D_1  S_1  
     e(  4 -  4) =    -12.60723  eV     1   --> B_1  D_3  S_3  
     e(  5 -  5) =      9.96155  eV     1   --> B_2  D_4  S_4  
     e(  6 -  6) =     12.88259  eV     1   --> A_1  D_1  S_1  
     e(  7 -  7) =     19.76699  eV     1   --> A_2  D_2  S_2  
     e(  8 -  8) =     19.77463  eV     1   --> B_2  D_4  S_4  
     e(  9 -  9) =     20.42222  eV     1   --> B_1  D_3  S_3  
     e( 10 - 10) =     20.50497  eV     1   --> A_1  D_1  S_1  
     e( 11 - 11) =     20.97778  eV     1   --> A_2  D_2  S_2  
     e( 12 - 12) =     20.99978  eV     1   --> B_2  D_4  S_4  
     e( 13 - 13) =     22.56263  eV     1   --> A_1  D_1  S_1  
     e( 14 - 14) =     27.85812  eV     1   --> B_1  D_3  S_3  
     e( 15 - 15) =     33.21685  eV     1   --> A_2  D_2  S_2  
     e( 16 - 16) =     34.60592  eV     1   --> B_2  D_4  S_4  
     e( 17 - 17) =     35.24523  eV     1   --> A_2  D_2  S_2  
     e( 18 - 18) =     35.40794  eV     1   --> B_2  D_4  S_4  
     e( 19 - 19) =     40.57826  eV     1   --> A_1  D_1  S_1  
     e( 20 - 20) =     45.64136  eV     1   --> B_1  D_3  S_3  

 **************************************************************************

 **************************************************************************

                    xk=(   0.00833,   0.01443,   0.46396  )

     Band symmetry, C_2v (mm2)  point group:

     e(  1 -  1) =    -38.87965  eV     1   --> A_1  D_1  S_1  
     e(  2 -  2) =    -13.62383  eV     1   --> B_2  D_4  S_4  
     e(  3 -  3) =    -12.60750  eV     1   --> A_1  D_1  S_1  
     e(  4 -  4) =    -12.60587  eV     1   --> B_1  D_3  S_3  
     e(  5 -  5) =      9.96161  eV     1   --> B_2  D_4  S_4  
     e(  6 -  6) =     12.86030  eV     1   --> A_1  D_1  S_1  
     e(  7 -  7) =     19.99092  eV     1   --> A_2  D_2  S_2  
     e(  8 -  8) =     19.99193  eV     1   --> B_2  D_4  S_4  
     e(  9 -  9) =     20.46445  eV     1   --> B_1  D_3  S_3  
     e( 10 - 10) =     20.48528  eV     1   --> A_1  D_1  S_1  
     e( 11 - 11) =     20.76133  eV     1   --> A_2  D_2  S_2  
     e( 12 - 12) =     20.76892  eV     1   --> B_2  D_4  S_4  
     e( 13 - 13) =     22.55428  eV     1   --> A_1  D_1  S_1  
     e( 14 - 14) =     27.79850  eV     1   --> B_1  D_3  S_3  
     e( 15 - 15) =     33.19725  eV     1   --> A_2  D_2  S_2  
     e( 16 - 16) =     34.70758  eV     1   --> B_2  D_4  S_4  
     e( 17 - 17) =     35.24266  eV     1   --> A_2  D_2  S_2  
     e( 18 - 18) =     35.29036  eV     1   --> B_2  D_4  S_4  
     e( 19 - 19) =     40.61464  eV     1   --> A_1  D_1  S_1  
     e( 20 - 20) =     45.90843  eV     1   --> A_1  D_1  S_1  

 **************************************************************************

 **************************************************************************

                    xk=(   0.00000,   0.00000,   0.46396  )

     point group D_6h(6/mmm)
     there are 12 classes
     the character table:

       E     2C6   2C3   C2    3C2'  3C2'' i     2S3   2S6   s_h   3s_d  3s_v 
A_1g   1.00  1.00  1.00  1.00  1.00  1.00  1.00  1.00  1.00  1.00  1.00  1.00
A_2g   1.00  1.00  1.00  1.00 -1.00 -1.00  1.00  1.00  1.00  1.00 -1.00 -1.00
B_1g   1.00 -1.00  1.00 -1.00  1.00 -1.00  1.00 -1.00  1.00 -1.00  1.00 -1.00
B_2g   1.00 -1.00  1.00 -1.00 -1.00  1.00  1.00 -1.00  1.00 -1.00 -1.00  1.00
E_1g   2.00  1.00 -1.00 -2.00  0.00  0.00  2.00  1.00 -1.00 -2.00  0.00  0.00
E_2g   2.00 -1.00 -1.00  2.00  0.00  0.00  2.00 -1.00 -1.00  2.00  0.00  0.00
A_1u   1.00  1.00  1.00  1.00  1.00  1.00 -1.00 -1.00 -1.00 -1.00 -1.00 -1.00
A_2u   1.00  1.00  1.00  1.00 -1.00 -1.00 -1.00 -1.00 -1.00 -1.00  1.00  1.00
B_1u   1.00 -1.00  1.00 -1.00  1.00 -1.00 -1.00  1.00 -1.00  1.00 -1.00  1.00
B_2u   1.00 -1.00  1.00 -1.00 -1.00  1.00 -1.00  1.00 -1.00  1.00  1.00 -1.00
E_1u   2.00  1.00 -1.00 -2.00  0.00  0.00 -2.00 -1.00  1.00  2.00  0.00  0.00
E_2u   2.00 -1.00 -1.00  2.00  0.00  0.00 -2.00  1.00  1.00 -2.00  0.00  0.00

     the symmetry operations in each class and the name of the first element:

     E        1
                                                                 
     2C6      5    6
                                                                 
     2C3      7    8
                                                                 
     C2       2
                                                                 
     3C2'     4   12   11
                                                                 
     3C2''    3    9   10
                                                                 
     i       13
                                                                 
     2S3     17   18
                                                                 
     2S6     19   20
                                                                 
     s_h     14
                                                                 
     3s_d    16   24   23
                                                                 
     3s_v    15   21   22
                                                                 

     Band symmetry, D_6h(6/mmm) point group:

     e(  1 -  1) =    -38.87991  eV     1   --> A_1g           
     e(  2 -  2) =    -13.62429  eV     1   --> A_2u           
     e(  3 -  4) =    -12.60541  eV     2   --> E_1u           
     e(  5 -  5) =      9.96172  eV     1   --> A_2u           
     e(  6 -  6) =     12.85289  eV     1   --> A_1g           
     e(  7 -  8) =     20.10252  eV     2   --> E_1g           
     e(  9 - 10) =     20.47872  eV     2   --> E_2g           
     e( 11 - 12) =     20.65351  eV     2   --> E_2u           
     e( 13 - 13) =     22.55151  eV     1   --> A_1g           
     e( 14 - 14) =     27.77844  eV     1   --> B_2u           
     e( 15 - 15) =     33.19115  eV     1   --> B_1g           
     e( 16 - 16) =     34.75159  eV     1   --> A_2u           
     e( 17 - 18) =     35.24177  eV     2   --> E_1g           
     e( 19 - 19) =     40.62677  eV     1   --> A_1g           
     e( 20 - 20) =     46.01810  eV     1   -->   ?

 **************************************************************************
 
     BANDS        :      5.93s CPU      6.47s WALL

 
   This run was terminated on:  14:32: 7  28Apr2022            

=------------------------------------------------------------------------------=
   JOB DONE.
=------------------------------------------------------------------------------=
