
     Program PWSCF v.7.0 starts on 13Apr2022 at 14:31:14 

     This program is part of the open-source Quantum ESPRESSO suite
     for quantum simulation of materials; please cite
         "P. Giannozzi et al., J. Phys.:Condens. Matter 21 395502 (2009);
         "P. Giannozzi et al., J. Phys.:Condens. Matter 29 465901 (2017);
         "P. Giannozzi et al., J. Chem. Phys. 152 154105 (2020);
          URL http://www.quantum-espresso.org", 
     in publications or presentations arising from this work. More details at
     http://www.quantum-espresso.org/quote

     Parallel version (MPI), running on     8 processors

     MPI processes distributed on     1 nodes
     R & G space division:  proc/nbgrp/npool/nimage =       8
     259 MiB available memory on the printing compute node when the environment starts
 
     Reading input from mob2_pw.in

     Current dimensions of program PWSCF are:
     Max number of different atomic species (ntypx) = 10
     Max number of k-points (npk) =  40000
     Max angular momentum in pseudopotentials (lmaxx) =  4

     Subspace diagonalization in iterative solution of the eigenvalue problem:
     a serial algorithm will be used

 
     Parallelization info
     --------------------
     sticks:   dense  smooth     PW     G-vecs:    dense   smooth      PW
     Min          43      43     14                  647      647     124
     Max          44      44     16                  650      650     126
     Sum         349     349    121                 5195     5195     997
 
     Using Slab Decomposition
 


     bravais-lattice index     =            4
     lattice parameter (alat)  =       5.8849  a.u.
     unit-cell volume          =     177.9097 (a.u.)^3
     number of atoms/cell      =            3
     number of atomic types    =            2
     number of electrons       =        20.00
     number of Kohn-Sham states=           20
     kinetic-energy cutoff     =      36.0000  Ry
     charge density cutoff     =     144.0000  Ry
     scf convergence threshold =      1.0E-06
     mixing beta               =       0.7000
     number of iterations used =            8  plain     mixing
     Exchange-correlation= PBE
                           (   1   4   3   4   0   0   0)

     celldm(1)=   5.884860  celldm(2)=   0.000000  celldm(3)=   1.008000
     celldm(4)=   0.000000  celldm(5)=   0.000000  celldm(6)=   0.000000

     crystal axes: (cart. coord. in units of alat)
               a(1) = (   1.000000   0.000000   0.000000 )  
               a(2) = (  -0.500000   0.866025   0.000000 )  
               a(3) = (   0.000000   0.000000   1.008000 )  

     reciprocal axes: (cart. coord. in units 2 pi/alat)
               b(1) = (  1.000000  0.577350  0.000000 )  
               b(2) = (  0.000000  1.154701  0.000000 )  
               b(3) = (  0.000000  0.000000  0.992063 )  


     PseudoPot. # 1 for Mo read from file:
     /home/marcocarmonaga/Apps/qe-7.0/pseudo/Mo_ONCV_PBE-1.2.upf
     MD5 check sum: 2665c9f4159700498d9a5f7573bd8e9f
     Pseudo is Norm-conserving, Zval = 14.0
     Generated using ONCVPSP code by D. R. Hamann
     Using radial grid of  602 points,  6 beta functions with: 
                l(1) =   0
                l(2) =   0
                l(3) =   1
                l(4) =   1
                l(5) =   2
                l(6) =   2

     PseudoPot. # 2 for B  read from file:
     /home/marcocarmonaga/Apps/qe-7.0/pseudo/B_ONCV_PBE-1.2.upf
     MD5 check sum: eb3cbeacc2d324d57d903df00f564d27
     Pseudo is Norm-conserving, Zval =  3.0
     Generated using ONCVPSP code by D. R. Hamann
     Using radial grid of  602 points,  4 beta functions with: 
                l(1) =   0
                l(2) =   0
                l(3) =   1
                l(4) =   1

     atomic species   valence    mass     pseudopotential
        Mo            14.00    95.95000     Mo( 1.00)
        B              3.00    10.81000     B ( 1.00)

     24 Sym. Ops., with inversion, found



   Cartesian axes

     site n.     atom                  positions (alat units)
         1           Mo  tau(   1) = (   0.0000000   0.0000000   0.0000000  )
         2           B   tau(   2) = (   0.5000000   0.2886751   0.5040000  )
         3           B   tau(   3) = (  -0.0000000   0.5773503   0.5040000  )

     number of k points=   333  Gaussian smearing, width (Ry)=  0.0150

     Number of k-points >= 100: set verbosity='high' to print them.

     Dense  grid:     5195 G-vectors     FFT dimensions: (  24,  24,  24)

     Estimated max dynamical RAM per process >      10.82 MB

     Estimated total dynamical RAM >      86.54 MB

     Initial potential from superposition of free atoms

     starting charge      19.8751, renormalised to      20.0000
     Starting wfcs are random

     total cpu time spent up to now is        8.2 secs

     Self-consistent Calculation

     iteration #  1     ecut=    36.00 Ry     beta= 0.70
     Davidson diagonalization with overlap
     ethr =  1.00E-02,  avg # of iterations =  8.0

     total cpu time spent up to now is       19.5 secs

     total energy              =    -148.32103323 Ry
     estimated scf accuracy    <       0.42246557 Ry

     iteration #  2     ecut=    36.00 Ry     beta= 0.70
     Davidson diagonalization with overlap
     ethr =  2.11E-03,  avg # of iterations =  2.1

     total cpu time spent up to now is       25.5 secs

     total energy              =    -148.32236445 Ry
     estimated scf accuracy    <       1.27638855 Ry

     iteration #  3     ecut=    36.00 Ry     beta= 0.70
     Davidson diagonalization with overlap
     ethr =  2.11E-03,  avg # of iterations =  1.9

     total cpu time spent up to now is       28.8 secs

     total energy              =    -148.55872377 Ry
     estimated scf accuracy    <       0.00314262 Ry

     iteration #  4     ecut=    36.00 Ry     beta= 0.70
     Davidson diagonalization with overlap
     ethr =  1.57E-05,  avg # of iterations =  4.7

     total cpu time spent up to now is       35.7 secs

     total energy              =    -148.55933301 Ry
     estimated scf accuracy    <       0.00031306 Ry

     iteration #  5     ecut=    36.00 Ry     beta= 0.70
     Davidson diagonalization with overlap
     ethr =  1.57E-06,  avg # of iterations =  2.7

     total cpu time spent up to now is       41.7 secs

     total energy              =    -148.55939727 Ry
     estimated scf accuracy    <       0.00001235 Ry

     iteration #  6     ecut=    36.00 Ry     beta= 0.70
     Davidson diagonalization with overlap
     ethr =  6.17E-08,  avg # of iterations =  1.4

     total cpu time spent up to now is       44.8 secs

     End of self-consistent calculation

     Number of k-points >= 100: set verbosity='high' to print the bands.

     the Fermi energy is    19.5006 ev

!    total energy              =    -148.55939842 Ry
     estimated scf accuracy    <       0.00000059 Ry
     smearing contrib. (-TS)   =      -0.00216814 Ry
     internal energy E=F+TS    =    -148.55723028 Ry

     The total energy is F=E-TS. E is the sum of the following terms:
     one-electron contribution =     -18.92697883 Ry
     hartree contribution      =      21.71615766 Ry
     xc contribution           =     -20.20638540 Ry
     ewald contribution        =    -131.14002371 Ry

     convergence has been achieved in   6 iterations

     Writing all to output data dir ./tmp/mob2.save/
 
     init_run     :      4.99s CPU      7.51s WALL (       1 calls)
     electrons    :     29.61s CPU     36.63s WALL (       1 calls)

     Called by init_run:
     wfcinit      :      4.87s CPU      7.28s WALL (       1 calls)
     potinit      :      0.04s CPU      0.10s WALL (       1 calls)
     hinit0       :      0.05s CPU      0.09s WALL (       1 calls)

     Called by electrons:
     c_bands      :     26.79s CPU     32.85s WALL (       6 calls)
     sum_band     :      2.81s CPU      3.76s WALL (       6 calls)
     v_of_rho     :      0.05s CPU      0.08s WALL (       7 calls)
     mix_rho      :      0.00s CPU      0.00s WALL (       6 calls)

     Called by c_bands:
     init_us_2    :      0.24s CPU      0.28s WALL (    4329 calls)
     init_us_2:cp :      0.23s CPU      0.26s WALL (    4329 calls)
     cegterg      :     25.53s CPU     31.44s WALL (    1998 calls)

     Called by *egterg:
     cdiaghg      :      4.87s CPU      5.82s WALL (    8956 calls)
     h_psi        :     21.43s CPU     28.29s WALL (    9289 calls)
     g_psi        :      0.04s CPU      0.05s WALL (    6958 calls)

     Called by h_psi:
     h_psi:calbec :      1.05s CPU      1.24s WALL (    9289 calls)
     vloc_psi     :     19.93s CPU     26.51s WALL (    9289 calls)
     add_vuspsi   :      0.34s CPU      0.41s WALL (    9289 calls)

     General routines
     calbec       :      1.03s CPU      1.21s WALL (    9289 calls)
     fft          :      0.02s CPU      0.09s WALL (      69 calls)
     ffts         :      0.00s CPU      0.00s WALL (       6 calls)
     fftw         :     21.35s CPU     28.58s WALL (  293014 calls)
 
     Parallel routines
 
     PWSCF        :     39.57s CPU     50.91s WALL

 
   This run was terminated on:  14:32: 5  13Apr2022            

=------------------------------------------------------------------------------=
   JOB DONE.
=------------------------------------------------------------------------------=
