
     Program PWSCF v.7.0 starts on 13Apr2022 at 14:38:43 

     This program is part of the open-source Quantum ESPRESSO suite
     for quantum simulation of materials; please cite
         "P. Giannozzi et al., J. Phys.:Condens. Matter 21 395502 (2009);
         "P. Giannozzi et al., J. Phys.:Condens. Matter 29 465901 (2017);
         "P. Giannozzi et al., J. Chem. Phys. 152 154105 (2020);
          URL http://www.quantum-espresso.org", 
     in publications or presentations arising from this work. More details at
     http://www.quantum-espresso.org/quote

     Parallel version (MPI), running on     8 processors

     MPI processes distributed on     1 nodes
     R & G space division:  proc/nbgrp/npool/nimage =       8
     321 MiB available memory on the printing compute node when the environment starts
 
     Reading input from mob2_pw.in

     Current dimensions of program PWSCF are:
     Max number of different atomic species (ntypx) = 10
     Max number of k-points (npk) =  40000
     Max angular momentum in pseudopotentials (lmaxx) =  4

     Subspace diagonalization in iterative solution of the eigenvalue problem:
     a serial algorithm will be used

 
     Parallelization info
     --------------------
     sticks:   dense  smooth     PW     G-vecs:    dense   smooth      PW
     Min          39      39     12                  653      653     120
     Max          40      40     13                  656      656     123
     Sum         313     313     97                 5233     5233     975
 
     Using Slab Decomposition
 


     bravais-lattice index     =            4
     lattice parameter (alat)  =       5.5791  a.u.
     unit-cell volume          =     177.9102 (a.u.)^3
     number of atoms/cell      =            3
     number of atomic types    =            2
     number of electrons       =        20.00
     number of Kohn-Sham states=           20
     kinetic-energy cutoff     =      36.0000  Ry
     charge density cutoff     =     144.0000  Ry
     scf convergence threshold =      1.0E-06
     mixing beta               =       0.7000
     number of iterations used =            8  plain     mixing
     Exchange-correlation= PBE
                           (   1   4   3   4   0   0   0)

     celldm(1)=   5.579070  celldm(2)=   0.000000  celldm(3)=   1.183000
     celldm(4)=   0.000000  celldm(5)=   0.000000  celldm(6)=   0.000000

     crystal axes: (cart. coord. in units of alat)
               a(1) = (   1.000000   0.000000   0.000000 )  
               a(2) = (  -0.500000   0.866025   0.000000 )  
               a(3) = (   0.000000   0.000000   1.183000 )  

     reciprocal axes: (cart. coord. in units 2 pi/alat)
               b(1) = (  1.000000  0.577350  0.000000 )  
               b(2) = (  0.000000  1.154701  0.000000 )  
               b(3) = (  0.000000  0.000000  0.845309 )  


     PseudoPot. # 1 for Mo read from file:
     /home/marcocarmonaga/Apps/qe-7.0/pseudo/Mo_ONCV_PBE-1.2.upf
     MD5 check sum: 2665c9f4159700498d9a5f7573bd8e9f
     Pseudo is Norm-conserving, Zval = 14.0
     Generated using ONCVPSP code by D. R. Hamann
     Using radial grid of  602 points,  6 beta functions with: 
                l(1) =   0
                l(2) =   0
                l(3) =   1
                l(4) =   1
                l(5) =   2
                l(6) =   2

     PseudoPot. # 2 for B  read from file:
     /home/marcocarmonaga/Apps/qe-7.0/pseudo/B_ONCV_PBE-1.2.upf
     MD5 check sum: eb3cbeacc2d324d57d903df00f564d27
     Pseudo is Norm-conserving, Zval =  3.0
     Generated using ONCVPSP code by D. R. Hamann
     Using radial grid of  602 points,  4 beta functions with: 
                l(1) =   0
                l(2) =   0
                l(3) =   1
                l(4) =   1

     atomic species   valence    mass     pseudopotential
        Mo            14.00    95.95000     Mo( 1.00)
        B              3.00    10.81000     B ( 1.00)

     24 Sym. Ops., with inversion, found



   Cartesian axes

     site n.     atom                  positions (alat units)
         1           Mo  tau(   1) = (   0.0000000   0.0000000   0.0000000  )
         2           B   tau(   2) = (   0.5000000   0.2886751   0.5915000  )
         3           B   tau(   3) = (  -0.0000000   0.5773503   0.5915000  )

     number of k points=   333  Gaussian smearing, width (Ry)=  0.0150

     Number of k-points >= 100: set verbosity='high' to print them.

     Dense  grid:     5233 G-vectors     FFT dimensions: (  24,  24,  25)

     Estimated max dynamical RAM per process >      10.86 MB

     Estimated total dynamical RAM >      86.88 MB

     Initial potential from superposition of free atoms

     starting charge      19.8751, renormalised to      20.0000
     Starting wfcs are random

     total cpu time spent up to now is        6.2 secs

     Self-consistent Calculation

     iteration #  1     ecut=    36.00 Ry     beta= 0.70
     Davidson diagonalization with overlap
     ethr =  1.00E-02,  avg # of iterations =  8.0

     total cpu time spent up to now is       18.1 secs

     total energy              =    -148.22179186 Ry
     estimated scf accuracy    <       0.59234542 Ry

     iteration #  2     ecut=    36.00 Ry     beta= 0.70
     Davidson diagonalization with overlap
     ethr =  2.96E-03,  avg # of iterations =  2.4

     total cpu time spent up to now is       25.3 secs

     total energy              =    -148.11494601 Ry
     estimated scf accuracy    <       2.43467433 Ry

     iteration #  3     ecut=    36.00 Ry     beta= 0.70
     Davidson diagonalization with overlap
     ethr =  2.96E-03,  avg # of iterations =  1.8

     total cpu time spent up to now is       31.2 secs

     total energy              =    -148.55830073 Ry
     estimated scf accuracy    <       0.01190700 Ry

     iteration #  4     ecut=    36.00 Ry     beta= 0.70
     Davidson diagonalization with overlap
     ethr =  5.95E-05,  avg # of iterations =  3.8

     total cpu time spent up to now is       39.1 secs

     total energy              =    -148.55981088 Ry
     estimated scf accuracy    <       0.00065602 Ry

     iteration #  5     ecut=    36.00 Ry     beta= 0.70
     Davidson diagonalization with overlap
     ethr =  3.28E-06,  avg # of iterations =  4.2

     total cpu time spent up to now is       45.9 secs

     total energy              =    -148.55995236 Ry
     estimated scf accuracy    <       0.00002871 Ry

     iteration #  6     ecut=    36.00 Ry     beta= 0.70
     Davidson diagonalization with overlap
     ethr =  1.44E-07,  avg # of iterations =  1.5

     total cpu time spent up to now is       49.1 secs

     End of self-consistent calculation

     Number of k-points >= 100: set verbosity='high' to print the bands.

     the Fermi energy is    19.0658 ev

!    total energy              =    -148.55995638 Ry
     estimated scf accuracy    <       0.00000061 Ry
     smearing contrib. (-TS)   =      -0.00255814 Ry
     internal energy E=F+TS    =    -148.55739823 Ry

     The total energy is F=E-TS. E is the sum of the following terms:
     one-electron contribution =     -19.19460926 Ry
     hartree contribution      =      21.79047394 Ry
     xc contribution           =     -20.22287659 Ry
     ewald contribution        =    -130.93038632 Ry

     convergence has been achieved in   6 iterations

     Writing all to output data dir ./tmp/mob2.save/
 
     init_run     :      3.54s CPU      5.79s WALL (       1 calls)
     electrons    :     35.18s CPU     42.88s WALL (       1 calls)

     Called by init_run:
     wfcinit      :      3.32s CPU      5.42s WALL (       1 calls)
     potinit      :      0.08s CPU      0.13s WALL (       1 calls)
     hinit0       :      0.10s CPU      0.18s WALL (       1 calls)

     Called by electrons:
     c_bands      :     30.78s CPU     36.67s WALL (       6 calls)
     sum_band     :      4.36s CPU      6.15s WALL (       6 calls)
     v_of_rho     :      0.05s CPU      0.09s WALL (       7 calls)
     mix_rho      :      0.00s CPU      0.00s WALL (       6 calls)

     Called by c_bands:
     init_us_2    :      0.25s CPU      0.32s WALL (    4329 calls)
     init_us_2:cp :      0.24s CPU      0.31s WALL (    4329 calls)
     cegterg      :     29.09s CPU     34.87s WALL (    1998 calls)

     Called by *egterg:
     cdiaghg      :      5.01s CPU      5.72s WALL (    9274 calls)
     h_psi        :     22.83s CPU     29.47s WALL (    9607 calls)
     g_psi        :      0.04s CPU      0.05s WALL (    7276 calls)

     Called by h_psi:
     h_psi:calbec :      0.75s CPU      0.91s WALL (    9607 calls)
     vloc_psi     :     21.63s CPU     28.04s WALL (    9607 calls)
     add_vuspsi   :      0.34s CPU      0.41s WALL (    9607 calls)

     General routines
     calbec       :      0.72s CPU      0.88s WALL (    9607 calls)
     fft          :      0.06s CPU      0.17s WALL (      69 calls)
     ffts         :      0.00s CPU      0.00s WALL (       6 calls)
     fftw         :     24.41s CPU     32.36s WALL (  290784 calls)
 
     Parallel routines
 
     PWSCF        :     43.03s CPU     55.32s WALL

 
   This run was terminated on:  14:39:38  13Apr2022            

=------------------------------------------------------------------------------=
   JOB DONE.
=------------------------------------------------------------------------------=
