
     Program PHONON v.7.0 starts on  1Jun2022 at  0:52:57 

     This program is part of the open-source Quantum ESPRESSO suite
     for quantum simulation of materials; please cite
         "P. Giannozzi et al., J. Phys.:Condens. Matter 21 395502 (2009);
         "P. Giannozzi et al., J. Phys.:Condens. Matter 29 465901 (2017);
         "P. Giannozzi et al., J. Chem. Phys. 152 154105 (2020);
          URL http://www.quantum-espresso.org", 
     in publications or presentations arising from this work. More details at
     http://www.quantum-espresso.org/quote

     Parallel version (MPI), running on     8 processors

     MPI processes distributed on     1 nodes
     R & G space division:  proc/nbgrp/npool/nimage =       8
     3731 MiB available memory on the printing compute node when the environment starts
 
     Reading input from mob2_fonon_04.in

     Reading xml data from directory:

     ./tmp/mob2.save/

     IMPORTANT: XC functional enforced from input :
     Exchange-correlation= PBE
                           (   1   4   3   4   0   0   0)
     Any further DFT definition will be discarded
     Please, verify this is what you really want

 
     Parallelization info
     --------------------
     sticks:   dense  smooth     PW     G-vecs:    dense   smooth      PW
     Min         199      56     18                 6901     1046     192
     Max         200      57     19                 6904     1049     195
     Sum        1597     451    151                55227     8373    1545
 
     Using Slab Decomposition
 
     Reading collected, re-writing distributed wavefunctions


     Dynamical matrices for ( 3, 3, 3)  uniform grid of q-points
     (   6 q-points):
       N         xq(1)         xq(2)         xq(3) 
       1   0.000000000   0.000000000   0.000000000
       2   0.000000000   0.000000000   0.311376641
       3   0.000000000   0.384900179   0.000000000
       4   0.000000000   0.384900179   0.311376641
       5   0.333333333   0.577350269   0.000000000
       6   0.333333333   0.577350269   0.311376641

     Calculation of q =    0.0000000   0.3849002   0.3113766

     Subspace diagonalization in iterative solution of the eigenvalue problem:
     a serial algorithm will be used

 
     Parallelization info
     --------------------
     sticks:   dense  smooth     PW     G-vecs:    dense   smooth      PW
     Min         199      56     20                 6901     1046     228
     Max         200      57     21                 6904     1049     231
     Sum        1597     451    163                55227     8373    1835
 
     Using Slab Decomposition
 

     Title: 
     Phonon calc for qp04                                                       


     bravais-lattice index     =            4
     lattice parameter (alat)  =       5.8733  a.u.
     unit-cell volume          =     187.8355 (a.u.)^3
     number of atoms/cell      =            3
     number of atomic types    =            2
     number of electrons       =        19.00
     number of Kohn-Sham states=           20
     kinetic-energy cutoff     =      48.0000  Ry
     charge density cutoff     =     672.0000  Ry
     Exchange-correlation= PBE
                           (   1   4   3   4   0   0   0)

     celldm(1)=   5.873335  celldm(2)=   0.000000  celldm(3)=   1.070515
     celldm(4)=   0.000000  celldm(5)=   0.000000  celldm(6)=   0.000000

     crystal axes: (cart. coord. in units of alat)
               a(1) = (   1.000000   0.000000   0.000000 )  
               a(2) = (  -0.500000   0.866025   0.000000 )  
               a(3) = (   0.000000   0.000000   1.070515 )  

     reciprocal axes: (cart. coord. in units 2 pi/alat)
               b(1) = (  1.000000  0.577350  0.000000 )  
               b(2) = (  0.000000  1.154701  0.000000 )  
               b(3) = (  0.000000  0.000000  0.934130 )  


     PseudoPot. # 1 for Xx read from file:
     /home/marcocarmonaga/Apps/qe-7.0/pseudo/Nb1.00Mo0.00.upf
     MD5 check sum: e4b562b21cfca1bf7e2ab47e57cae993
     Pseudo is Norm-conserving, Zval = 13.0
     Generated using virtual.x code
     Using radial grid of  602 points, 12 beta functions with: 
                l(1) =   0
                l(2) =   0
                l(3) =   1
                l(4) =   1
                l(5) =   2
                l(6) =   2
                l(7) =   0
                l(8) =   0
                l(9) =   1
               l(10) =   1
               l(11) =   2
               l(12) =   2

     PseudoPot. # 2 for B  read from file:
     /home/marcocarmonaga/Apps/qe-7.0/pseudo/B_ONCV_PBE-1.2.upf
     MD5 check sum: eb3cbeacc2d324d57d903df00f564d27
     Pseudo is Norm-conserving, Zval =  3.0
     Generated using ONCVPSP code by D. R. Hamann
     Using radial grid of  602 points,  4 beta functions with: 
                l(1) =   0
                l(2) =   0
                l(3) =   1
                l(4) =   1

     atomic species   valence    mass     pseudopotential
        Mo            13.00    92.90600     Xx( 1.00)
        B              3.00    10.81000     B ( 1.00)

     24 Sym. Ops., with inversion, found



   Cartesian axes

     site n.     atom                  positions (alat units)
         1           Mo  tau(   1) = (   0.0000000   0.0000000   0.0000000  )
         2           B   tau(   2) = (   0.5000000   0.2886751   0.5352574  )
         3           B   tau(   3) = (   0.0000000   0.5773503   0.5352574  )

     number of k points=  6156  Gaussian smearing, width (Ry)=  0.0150

     Number of k-points >= 100: set verbosity='high' to print them.

     Dense  grid:    55227 G-vectors     FFT dimensions: (  50,  50,  54)

     Smooth grid:     8373 G-vectors     FFT dimensions: (  25,  25,  27)

     Estimated max dynamical RAM per process >     264.99 MB

     Estimated total dynamical RAM >       2.07 GB

     The potential is recalculated from file :
     ./tmp/_ph0/mob2.save/charge-density

     Starting wfcs are    0 atomic +   20 random wfcs

     Band Structure Calculation
     Davidson diagonalization with overlap

     ethr =  5.26E-11,  avg # of iterations = 22.9

     total cpu time spent up to now is      499.9 secs

     End of band structure calculation

     Number of k-points >= 100: set verbosity='high' to print the bands.

     the Fermi energy is    18.4715 ev

     Phonon calc for qp04                                                       

     bravais-lattice index     =            4
     lattice parameter (alat)  =       5.8733  a.u.
     unit-cell volume          =     187.8355 (a.u.)^3
     number of atoms/cell      =            3
     number of atomic types    =            2
     kinetic-energy cut-off    =      48.0000  Ry
     charge density cut-off    =     672.0000  Ry
     convergence threshold     =      1.0E-14
     beta                      =       0.7000
     number of iterations used =            4
     Exchange-correlation= PBE
                           (   1   4   3   4   0   0   0)


     celldm(1)=    5.87334  celldm(2)=    0.00000  celldm(3)=    1.07051
     celldm(4)=    0.00000  celldm(5)=    0.00000  celldm(6)=    0.00000

     crystal axes: (cart. coord. in units of alat)
               a(1) = (  1.0000  0.0000  0.0000 )  
               a(2) = ( -0.5000  0.8660  0.0000 )  
               a(3) = (  0.0000  0.0000  1.0705 )  

     reciprocal axes: (cart. coord. in units 2 pi/alat)
               b(1) = (  1.0000  0.5774  0.0000 )  
               b(2) = (  0.0000  1.1547  0.0000 )  
               b(3) = (  0.0000  0.0000  0.9341 )  


     Atoms inside the unit cell: 

     Cartesian axes

     site n.  atom      mass           positions (alat units)
        1     Mo  92.9060   tau(    1) = (    0.00000    0.00000    0.00000  )
        2     B   10.8100   tau(    2) = (    0.50000    0.28868    0.53526  )
        3     B   10.8100   tau(    3) = (    0.00000    0.57735    0.53526  )

     Computing dynamical matrix for 
                    q = (   0.0000000   0.3849002   0.3113766 )
 
      2 Sym.Ops. (no q -> -q+G )


     G cutoff =  587.1906  (   6903 G-vectors)     FFT grid: ( 50, 50, 54)
     G cutoff =  167.7687  (   1049 G-vectors)  smooth grid: ( 25, 25, 27)

     number of k points=  6156  Gaussian smearing, width (Ry)=  0.0150

     PseudoPot. # 1 for Xx read from file:
     /home/marcocarmonaga/Apps/qe-7.0/pseudo/Nb1.00Mo0.00.upf
     MD5 check sum: e4b562b21cfca1bf7e2ab47e57cae993
     Pseudo is Norm-conserving, Zval = 13.0
     Generated using virtual.x code
     Using radial grid of  602 points, 12 beta functions with: 
                l(1) =   0
                l(2) =   0
                l(3) =   1
                l(4) =   1
                l(5) =   2
                l(6) =   2
                l(7) =   0
                l(8) =   0
                l(9) =   1
               l(10) =   1
               l(11) =   2
               l(12) =   2

     PseudoPot. # 2 for B  read from file:
     /home/marcocarmonaga/Apps/qe-7.0/pseudo/B_ONCV_PBE-1.2.upf
     MD5 check sum: eb3cbeacc2d324d57d903df00f564d27
     Pseudo is Norm-conserving, Zval =  3.0
     Generated using ONCVPSP code by D. R. Hamann
     Using radial grid of  602 points,  4 beta functions with: 
                l(1) =   0
                l(2) =   0
                l(3) =   1
                l(4) =   1

     Mode symmetry, C_s (m)     point group:


     Atomic displacements:
     There are    9 irreducible representations

     Representation     1      1 modes -  To be done

     Representation     2      1 modes -  To be done

     Representation     3      1 modes -  To be done

     Representation     4      1 modes -  To be done

     Representation     5      1 modes -  To be done

     Representation     6      1 modes -  To be done

     Representation     7      1 modes -  To be done

     Representation     8      1 modes -  To be done

     Representation     9      1 modes -  To be done



     Alpha used in Ewald sum =   2.8000
     PHONON       :   8m24.15s CPU   8m37.23s WALL



     Representation #   1 mode #   1

     Self-consistent Calculation

      iter #   1 total cpu time :   578.6 secs   av.it.:   7.1
      thresh= 1.000E-02 alpha_mix =  0.700 |ddv_scf|^2 =  1.699E-05

      iter #   2 total cpu time :   659.3 secs   av.it.:  12.9
      thresh= 4.121E-04 alpha_mix =  0.700 |ddv_scf|^2 =  3.004E-04

      iter #   3 total cpu time :   727.3 secs   av.it.:  10.5
      thresh= 1.733E-03 alpha_mix =  0.700 |ddv_scf|^2 =  4.570E-06

      iter #   4 total cpu time :   800.8 secs   av.it.:  11.6
      thresh= 2.138E-04 alpha_mix =  0.700 |ddv_scf|^2 =  1.074E-07

      iter #   5 total cpu time :   877.1 secs   av.it.:  12.1
      thresh= 3.277E-05 alpha_mix =  0.700 |ddv_scf|^2 =  4.957E-09

      iter #   6 total cpu time :   953.1 secs   av.it.:  12.1
      thresh= 7.041E-06 alpha_mix =  0.700 |ddv_scf|^2 =  8.073E-11

      iter #   7 total cpu time :  1032.4 secs   av.it.:  12.8
      thresh= 8.985E-07 alpha_mix =  0.700 |ddv_scf|^2 =  1.312E-11

      iter #   8 total cpu time :  1111.5 secs   av.it.:  12.7
      thresh= 3.622E-07 alpha_mix =  0.700 |ddv_scf|^2 =  1.232E-11

      iter #   9 total cpu time :  1186.5 secs   av.it.:  11.8
      thresh= 3.511E-07 alpha_mix =  0.700 |ddv_scf|^2 =  2.044E-11

      iter #  10 total cpu time :  1259.2 secs   av.it.:  11.5
      thresh= 4.521E-07 alpha_mix =  0.700 |ddv_scf|^2 =  5.895E-12

      iter #  11 total cpu time :  1332.1 secs   av.it.:  11.5
      thresh= 2.428E-07 alpha_mix =  0.700 |ddv_scf|^2 =  6.656E-13

      iter #  12 total cpu time :  1407.2 secs   av.it.:  11.9
      thresh= 8.159E-08 alpha_mix =  0.700 |ddv_scf|^2 =  5.839E-13

      iter #  13 total cpu time :  1476.8 secs   av.it.:  10.8
      thresh= 7.641E-08 alpha_mix =  0.700 |ddv_scf|^2 =  5.882E-14

      iter #  14 total cpu time :  1550.5 secs   av.it.:  11.7
      thresh= 2.425E-08 alpha_mix =  0.700 |ddv_scf|^2 =  3.455E-15

     End of self-consistent calculation

     Convergence has been achieved 


     Representation #   2 mode #   2

     Self-consistent Calculation

      iter #   1 total cpu time :  1627.4 secs   av.it.:   9.0
      thresh= 1.000E-02 alpha_mix =  0.700 |ddv_scf|^2 =  2.528E-04

      iter #   2 total cpu time :  1707.2 secs   av.it.:  12.8
      thresh= 1.590E-03 alpha_mix =  0.700 |ddv_scf|^2 =  3.823E-03

      iter #   3 total cpu time :  1775.2 secs   av.it.:  10.5
      thresh= 6.183E-03 alpha_mix =  0.700 |ddv_scf|^2 =  1.143E-04

      iter #   4 total cpu time :  1848.0 secs   av.it.:  11.3
      thresh= 1.069E-03 alpha_mix =  0.700 |ddv_scf|^2 =  1.918E-06

      iter #   5 total cpu time :  1923.0 secs   av.it.:  11.9
      thresh= 1.385E-04 alpha_mix =  0.700 |ddv_scf|^2 =  5.489E-08

      iter #   6 total cpu time :  1998.9 secs   av.it.:  12.1
      thresh= 2.343E-05 alpha_mix =  0.700 |ddv_scf|^2 =  1.468E-09

      iter #   7 total cpu time :  2075.5 secs   av.it.:  12.3
      thresh= 3.831E-06 alpha_mix =  0.700 |ddv_scf|^2 =  2.112E-11

      iter #   8 total cpu time :  2155.6 secs   av.it.:  12.9
      thresh= 4.596E-07 alpha_mix =  0.700 |ddv_scf|^2 =  3.122E-11

      iter #   9 total cpu time :  2227.8 secs   av.it.:  11.3
      thresh= 5.588E-07 alpha_mix =  0.700 |ddv_scf|^2 =  2.069E-11

      iter #  10 total cpu time :  2300.0 secs   av.it.:  11.4
      thresh= 4.549E-07 alpha_mix =  0.700 |ddv_scf|^2 =  5.748E-12

      iter #  11 total cpu time :  2371.5 secs   av.it.:  11.2
      thresh= 2.398E-07 alpha_mix =  0.700 |ddv_scf|^2 =  1.123E-12

      iter #  12 total cpu time :  2447.0 secs   av.it.:  12.0
      thresh= 1.060E-07 alpha_mix =  0.700 |ddv_scf|^2 =  3.589E-13

      iter #  13 total cpu time :  2519.0 secs   av.it.:  11.4
      thresh= 5.991E-08 alpha_mix =  0.700 |ddv_scf|^2 =  6.993E-15

     End of self-consistent calculation

     Convergence has been achieved 


     Representation #   3 mode #   3

     Self-consistent Calculation

      iter #   1 total cpu time :  2577.7 secs   av.it.:   6.9
      thresh= 1.000E-02 alpha_mix =  0.700 |ddv_scf|^2 =  1.890E-05

      iter #   2 total cpu time :  2657.9 secs   av.it.:  12.9
      thresh= 4.348E-04 alpha_mix =  0.700 |ddv_scf|^2 =  4.211E-04

      iter #   3 total cpu time :  2725.4 secs   av.it.:  10.4
      thresh= 2.052E-03 alpha_mix =  0.700 |ddv_scf|^2 =  9.624E-07

      iter #   4 total cpu time :  2799.5 secs   av.it.:  11.8
      thresh= 9.810E-05 alpha_mix =  0.700 |ddv_scf|^2 =  2.226E-08

      iter #   5 total cpu time :  2876.7 secs   av.it.:  12.3
      thresh= 1.492E-05 alpha_mix =  0.700 |ddv_scf|^2 =  9.580E-09

      iter #   6 total cpu time :  2951.1 secs   av.it.:  11.8
      thresh= 9.788E-06 alpha_mix =  0.700 |ddv_scf|^2 =  2.170E-10

      iter #   7 total cpu time :  3028.3 secs   av.it.:  12.4
      thresh= 1.473E-06 alpha_mix =  0.700 |ddv_scf|^2 =  3.447E-11

      iter #   8 total cpu time :  3104.8 secs   av.it.:  12.3
      thresh= 5.871E-07 alpha_mix =  0.700 |ddv_scf|^2 =  6.950E-12

      iter #   9 total cpu time :  3184.3 secs   av.it.:  12.8
      thresh= 2.636E-07 alpha_mix =  0.700 |ddv_scf|^2 =  3.374E-11

      iter #  10 total cpu time :  3255.3 secs   av.it.:  11.0
      thresh= 5.809E-07 alpha_mix =  0.700 |ddv_scf|^2 =  5.264E-12

      iter #  11 total cpu time :  3327.2 secs   av.it.:  11.3
      thresh= 2.294E-07 alpha_mix =  0.700 |ddv_scf|^2 =  2.222E-12

      iter #  12 total cpu time :  3400.1 secs   av.it.:  11.6
      thresh= 1.491E-07 alpha_mix =  0.700 |ddv_scf|^2 =  8.999E-14

      iter #  13 total cpu time :  3477.3 secs   av.it.:  12.4
      thresh= 3.000E-08 alpha_mix =  0.700 |ddv_scf|^2 =  1.513E-14

      iter #  14 total cpu time :  3553.3 secs   av.it.:  12.1
      thresh= 1.230E-08 alpha_mix =  0.700 |ddv_scf|^2 =  1.152E-15

     End of self-consistent calculation

     Convergence has been achieved 


     Representation #   4 mode #   4

     Self-consistent Calculation

      iter #   1 total cpu time :  3612.1 secs   av.it.:   6.9
      thresh= 1.000E-02 alpha_mix =  0.700 |ddv_scf|^2 =  2.031E-05

      iter #   2 total cpu time :  3692.2 secs   av.it.:  12.9
      thresh= 4.507E-04 alpha_mix =  0.700 |ddv_scf|^2 =  4.579E-04

      iter #   3 total cpu time :  3759.6 secs   av.it.:  10.4
      thresh= 2.140E-03 alpha_mix =  0.700 |ddv_scf|^2 =  8.601E-07

      iter #   4 total cpu time :  3833.8 secs   av.it.:  11.8
      thresh= 9.274E-05 alpha_mix =  0.700 |ddv_scf|^2 =  2.055E-08

      iter #   5 total cpu time :  3911.1 secs   av.it.:  12.3
      thresh= 1.434E-05 alpha_mix =  0.700 |ddv_scf|^2 =  9.097E-09

      iter #   6 total cpu time :  3985.5 secs   av.it.:  11.8
      thresh= 9.538E-06 alpha_mix =  0.700 |ddv_scf|^2 =  2.040E-10

      iter #   7 total cpu time :  4062.6 secs   av.it.:  12.3
      thresh= 1.428E-06 alpha_mix =  0.700 |ddv_scf|^2 =  3.338E-11

      iter #   8 total cpu time :  4139.5 secs   av.it.:  12.2
      thresh= 5.777E-07 alpha_mix =  0.700 |ddv_scf|^2 =  6.227E-12

      iter #   9 total cpu time :  4219.8 secs   av.it.:  12.9
      thresh= 2.495E-07 alpha_mix =  0.700 |ddv_scf|^2 =  2.739E-11

      iter #  10 total cpu time :  4290.8 secs   av.it.:  11.0
      thresh= 5.234E-07 alpha_mix =  0.700 |ddv_scf|^2 =  6.473E-12

      iter #  11 total cpu time :  4362.5 secs   av.it.:  11.2
      thresh= 2.544E-07 alpha_mix =  0.700 |ddv_scf|^2 =  3.177E-12

      iter #  12 total cpu time :  4435.0 secs   av.it.:  11.4
      thresh= 1.782E-07 alpha_mix =  0.700 |ddv_scf|^2 =  1.745E-13

      iter #  13 total cpu time :  4510.7 secs   av.it.:  12.0
      thresh= 4.177E-08 alpha_mix =  0.700 |ddv_scf|^2 =  1.715E-14

      iter #  14 total cpu time :  4585.7 secs   av.it.:  11.9
      thresh= 1.310E-08 alpha_mix =  0.700 |ddv_scf|^2 =  1.429E-15

     End of self-consistent calculation

     Convergence has been achieved 


     Representation #   5 mode #   5

     Self-consistent Calculation

      iter #   1 total cpu time :  4659.0 secs   av.it.:   9.2
      thresh= 1.000E-02 alpha_mix =  0.700 |ddv_scf|^2 =  3.538E-04

      iter #   2 total cpu time :  4739.1 secs   av.it.:  12.9
      thresh= 1.881E-03 alpha_mix =  0.700 |ddv_scf|^2 =  6.554E-03

      iter #   3 total cpu time :  4806.8 secs   av.it.:  10.5
      thresh= 8.096E-03 alpha_mix =  0.700 |ddv_scf|^2 =  6.878E-05

      iter #   4 total cpu time :  4879.9 secs   av.it.:  11.6
      thresh= 8.293E-04 alpha_mix =  0.700 |ddv_scf|^2 =  2.653E-06

      iter #   5 total cpu time :  4953.8 secs   av.it.:  11.7
      thresh= 1.629E-04 alpha_mix =  0.700 |ddv_scf|^2 =  5.058E-08

      iter #   6 total cpu time :  5028.8 secs   av.it.:  11.9
      thresh= 2.249E-05 alpha_mix =  0.700 |ddv_scf|^2 =  4.007E-09

      iter #   7 total cpu time :  5104.5 secs   av.it.:  12.0
      thresh= 6.330E-06 alpha_mix =  0.700 |ddv_scf|^2 =  1.294E-10

      iter #   8 total cpu time :  5179.2 secs   av.it.:  11.9
      thresh= 1.138E-06 alpha_mix =  0.700 |ddv_scf|^2 =  9.626E-12

      iter #   9 total cpu time :  5256.4 secs   av.it.:  12.4
      thresh= 3.103E-07 alpha_mix =  0.700 |ddv_scf|^2 =  9.592E-12

      iter #  10 total cpu time :  5330.3 secs   av.it.:  11.7
      thresh= 3.097E-07 alpha_mix =  0.700 |ddv_scf|^2 =  8.680E-12

      iter #  11 total cpu time :  5402.4 secs   av.it.:  11.4
      thresh= 2.946E-07 alpha_mix =  0.700 |ddv_scf|^2 =  2.844E-12

      iter #  12 total cpu time :  5474.2 secs   av.it.:  11.3
      thresh= 1.686E-07 alpha_mix =  0.700 |ddv_scf|^2 =  1.055E-13

      iter #  13 total cpu time :  5553.5 secs   av.it.:  12.8
      thresh= 3.248E-08 alpha_mix =  0.700 |ddv_scf|^2 =  1.971E-13

      iter #  14 total cpu time :  5624.7 secs   av.it.:  11.2
      thresh= 4.440E-08 alpha_mix =  0.700 |ddv_scf|^2 =  2.614E-15

     End of self-consistent calculation

     Convergence has been achieved 


     Representation #   6 mode #   6

     Self-consistent Calculation

      iter #   1 total cpu time :  5684.0 secs   av.it.:   7.0
      thresh= 1.000E-02 alpha_mix =  0.700 |ddv_scf|^2 =  1.839E-05

      iter #   2 total cpu time :  5764.1 secs   av.it.:  12.9
      thresh= 4.288E-04 alpha_mix =  0.700 |ddv_scf|^2 =  3.372E-04

      iter #   3 total cpu time :  5831.8 secs   av.it.:  10.5
      thresh= 1.836E-03 alpha_mix =  0.700 |ddv_scf|^2 =  4.360E-06

      iter #   4 total cpu time :  5905.1 secs   av.it.:  11.6
      thresh= 2.088E-04 alpha_mix =  0.700 |ddv_scf|^2 =  9.069E-08

      iter #   5 total cpu time :  5981.3 secs   av.it.:  12.2
      thresh= 3.011E-05 alpha_mix =  0.700 |ddv_scf|^2 =  5.645E-09

      iter #   6 total cpu time :  6057.4 secs   av.it.:  12.0
      thresh= 7.513E-06 alpha_mix =  0.700 |ddv_scf|^2 =  1.678E-10

      iter #   7 total cpu time :  6135.2 secs   av.it.:  12.5
      thresh= 1.295E-06 alpha_mix =  0.700 |ddv_scf|^2 =  2.154E-11

      iter #   8 total cpu time :  6213.2 secs   av.it.:  12.6
      thresh= 4.642E-07 alpha_mix =  0.700 |ddv_scf|^2 =  1.551E-11

      iter #   9 total cpu time :  6288.0 secs   av.it.:  11.9
      thresh= 3.938E-07 alpha_mix =  0.700 |ddv_scf|^2 =  2.094E-11

      iter #  10 total cpu time :  6361.2 secs   av.it.:  11.6
      thresh= 4.576E-07 alpha_mix =  0.700 |ddv_scf|^2 =  8.903E-12

      iter #  11 total cpu time :  6433.8 secs   av.it.:  11.5
      thresh= 2.984E-07 alpha_mix =  0.700 |ddv_scf|^2 =  3.987E-13

      iter #  12 total cpu time :  6511.5 secs   av.it.:  12.5
      thresh= 6.314E-08 alpha_mix =  0.700 |ddv_scf|^2 =  4.338E-13

      iter #  13 total cpu time :  6581.8 secs   av.it.:  11.0
      thresh= 6.586E-08 alpha_mix =  0.700 |ddv_scf|^2 =  9.575E-14

      iter #  14 total cpu time :  6654.7 secs   av.it.:  11.5
      thresh= 3.094E-08 alpha_mix =  0.700 |ddv_scf|^2 =  4.746E-15

     End of self-consistent calculation

     Convergence has been achieved 


     Representation #   7 mode #   7

     Self-consistent Calculation

      iter #   1 total cpu time :  6709.1 secs   av.it.:   6.2
      thresh= 1.000E-02 alpha_mix =  0.700 |ddv_scf|^2 =  3.006E-07

      iter #   2 total cpu time :  6787.1 secs   av.it.:  12.5
      thresh= 5.482E-05 alpha_mix =  0.700 |ddv_scf|^2 =  2.303E-08

      iter #   3 total cpu time :  6864.8 secs   av.it.:  12.5
      thresh= 1.518E-05 alpha_mix =  0.700 |ddv_scf|^2 =  5.421E-10

      iter #   4 total cpu time :  6940.3 secs   av.it.:  12.2
      thresh= 2.328E-06 alpha_mix =  0.700 |ddv_scf|^2 =  3.569E-11

      iter #   5 total cpu time :  7016.0 secs   av.it.:  12.2
      thresh= 5.974E-07 alpha_mix =  0.700 |ddv_scf|^2 =  1.094E-13

      iter #   6 total cpu time :  7095.9 secs   av.it.:  12.9
      thresh= 3.308E-08 alpha_mix =  0.700 |ddv_scf|^2 =  5.746E-16

     End of self-consistent calculation

     Convergence has been achieved 


     Representation #   8 mode #   8

     Self-consistent Calculation

      iter #   1 total cpu time :  7150.3 secs   av.it.:   6.2
      thresh= 1.000E-02 alpha_mix =  0.700 |ddv_scf|^2 =  3.006E-07

      iter #   2 total cpu time :  7228.2 secs   av.it.:  12.5
      thresh= 5.482E-05 alpha_mix =  0.700 |ddv_scf|^2 =  2.303E-08

      iter #   3 total cpu time :  7305.8 secs   av.it.:  12.5
      thresh= 1.518E-05 alpha_mix =  0.700 |ddv_scf|^2 =  5.421E-10

      iter #   4 total cpu time :  7381.4 secs   av.it.:  12.2
      thresh= 2.328E-06 alpha_mix =  0.700 |ddv_scf|^2 =  3.569E-11

      iter #   5 total cpu time :  7457.2 secs   av.it.:  12.2
      thresh= 5.974E-07 alpha_mix =  0.700 |ddv_scf|^2 =  1.094E-13

      iter #   6 total cpu time :  7536.9 secs   av.it.:  12.9
      thresh= 3.308E-08 alpha_mix =  0.700 |ddv_scf|^2 =  5.746E-16

     End of self-consistent calculation

     Convergence has been achieved 


     Representation #   9 mode #   9

     Self-consistent Calculation

      iter #   1 total cpu time :  7604.9 secs   av.it.:   8.2
      thresh= 1.000E-02 alpha_mix =  0.700 |ddv_scf|^2 =  8.809E-06

      iter #   2 total cpu time :  7682.2 secs   av.it.:  12.5
      thresh= 2.968E-04 alpha_mix =  0.700 |ddv_scf|^2 =  1.105E-06

      iter #   3 total cpu time :  7759.1 secs   av.it.:  12.3
      thresh= 1.051E-04 alpha_mix =  0.700 |ddv_scf|^2 =  1.572E-09

      iter #   4 total cpu time :  7840.6 secs   av.it.:  12.6
      thresh= 3.965E-06 alpha_mix =  0.700 |ddv_scf|^2 =  1.090E-10

      iter #   5 total cpu time :  7916.7 secs   av.it.:  12.3
      thresh= 1.044E-06 alpha_mix =  0.700 |ddv_scf|^2 =  6.090E-13

      iter #   6 total cpu time :  7993.6 secs   av.it.:  12.4
      thresh= 7.804E-08 alpha_mix =  0.700 |ddv_scf|^2 =  1.529E-14

      iter #   7 total cpu time :  8071.2 secs   av.it.:  12.5
      thresh= 1.236E-08 alpha_mix =  0.700 |ddv_scf|^2 =  2.060E-16

     End of self-consistent calculation

     Convergence has been achieved 
 
     Number of q in the star =   12
     List of q in the star:
          1   0.000000000   0.384900179   0.311376641
          2   0.333333333  -0.192450090   0.311376641
          3   0.000000000  -0.384900179   0.311376641
          4   0.333333333   0.192450090   0.311376641
          5  -0.333333333   0.192450090   0.311376641
          6   0.000000000   0.384900179  -0.311376641
          7   0.000000000  -0.384900179  -0.311376641
          8   0.333333333  -0.192450090  -0.311376641
          9  -0.333333333  -0.192450090  -0.311376641
         10  -0.333333333   0.192450090  -0.311376641
         11   0.333333333   0.192450090  -0.311376641
         12  -0.333333333  -0.192450090   0.311376641

     Diagonalizing the dynamical matrix

     q = (    0.000000000   0.384900179   0.311376641 ) 

 **************************************************************************
     freq (    1) =       5.196662 [THz] =     173.341980 [cm-1]
     freq (    2) =       5.543904 [THz] =     184.924741 [cm-1]
     freq (    3) =       6.786215 [THz] =     226.363771 [cm-1]
     freq (    4) =      14.015511 [THz] =     467.507140 [cm-1]
     freq (    5) =      15.217416 [THz] =     507.598360 [cm-1]
     freq (    6) =      16.516365 [THz] =     550.926633 [cm-1]
     freq (    7) =      17.854803 [THz] =     595.572112 [cm-1]
     freq (    8) =      22.386606 [THz] =     746.736795 [cm-1]
     freq (    9) =      22.986019 [THz] =     766.731079 [cm-1]
 **************************************************************************

     Mode symmetry, C_s (m)     point group:

     freq (   1-   1) =        173.3  [cm-1]   --> A'                 
     freq (   2-   2) =        184.9  [cm-1]   --> A''                
     freq (   3-   3) =        226.4  [cm-1]   --> A'                 
     freq (   4-   4) =        467.5  [cm-1]   --> A''                
     freq (   5-   5) =        507.6  [cm-1]   --> A'                 
     freq (   6-   6) =        550.9  [cm-1]   --> A'                 
     freq (   7-   7) =        595.6  [cm-1]   --> A'                 
     freq (   8-   8) =        746.7  [cm-1]   --> A''                
     freq (   9-   9) =        766.7  [cm-1]   --> A'                 
 
     init_run     :      0.21s CPU      0.22s WALL (       1 calls)
     electrons    :    487.23s CPU    499.64s WALL (       1 calls)

     Called by init_run:
     wfcinit      :      0.00s CPU      0.00s WALL (       1 calls)
     potinit      :      0.02s CPU      0.02s WALL (       1 calls)
     hinit0       :      0.03s CPU      0.04s WALL (       1 calls)

     Called by electrons:
     c_bands      :    487.00s CPU    499.40s WALL (       1 calls)
     v_of_rho     :      0.03s CPU      0.03s WALL (       2 calls)

     Called by c_bands:
     init_us_2    :     48.06s CPU     50.35s WALL (  381672 calls)
     init_us_2:cp :     46.72s CPU     49.15s WALL (  381672 calls)
     cegterg      :    459.39s CPU    470.92s WALL (    9493 calls)

     Called by *egterg:
     cdiaghg      :    163.96s CPU    167.71s WALL (  146965 calls)
     h_psi        :   5469.24s CPU   5721.98s WALL ( 6362360 calls)
     g_psi        :      1.37s CPU      1.41s WALL (  140809 calls)

     Called by h_psi:
     h_psi:calbec :    354.33s CPU    370.71s WALL ( 6362360 calls)
     vloc_psi     :   4732.81s CPU   4951.33s WALL ( 6362360 calls)
     add_vuspsi   :    310.63s CPU    326.35s WALL ( 6362360 calls)

     General routines
     calbec       :    622.93s CPU    652.26s WALL (12709850 calls)
     fft          :      1.01s CPU      1.14s WALL (    1352 calls)
     ffts         :      4.92s CPU      5.54s WALL (   27989 calls)
     fftw         :   4986.21s CPU   5226.41s WALL (92135042 calls)
     interpolate  :      0.39s CPU      0.47s WALL (     206 calls)
 
     Parallel routines
 
     PHONON       :      2h 8m CPU      2h14m WALL

     INITIALIZATION: 
     phq_setup    :      0.04s CPU      0.04s WALL (       1 calls)
     phq_init     :     16.16s CPU     16.29s WALL (       1 calls)
 
     phq_init     :     16.16s CPU     16.29s WALL (       1 calls)
     init_vloc    :      0.03s CPU      0.03s WALL (       2 calls)
     init_us_1    :      0.01s CPU      0.03s WALL (       2 calls)
     init_us_2    :     48.06s CPU     50.35s WALL (  381672 calls)
 
     DYNAMICAL MATRIX:
     dynmat0      :     13.91s CPU     13.99s WALL (       1 calls)
     phqscf       :   7207.63s CPU   7556.49s WALL (       1 calls)
     dynmatrix    :      0.01s CPU      0.03s WALL (       1 calls)
 
     phqscf       :   7207.63s CPU   7556.49s WALL (       1 calls)
     solve_linter :   7185.26s CPU   7533.53s WALL (       9 calls)
     drhodv       :     22.37s CPU     22.95s WALL (       9 calls)
 
     dynmat0      :     13.91s CPU     13.99s WALL (       1 calls)
     dynmat_us    :     13.91s CPU     13.97s WALL (       1 calls)
     d2ionq       :      0.01s CPU      0.01s WALL (       1 calls)
 
     dynmat_us    :     13.91s CPU     13.97s WALL (       1 calls)
 
     phqscf       :   7207.63s CPU   7556.49s WALL (       1 calls)
     solve_linter :   7185.26s CPU   7533.53s WALL (       9 calls)
 
     solve_linter :   7185.26s CPU   7533.53s WALL (       9 calls)
     dvqpsi_us    :    109.82s CPU    115.03s WALL (   27702 calls)
     sth_kernel   :   7065.65s CPU   7408.20s WALL (     102 calls)
     apply_dpot_b :    381.75s CPU    402.53s WALL (  286254 calls)
     ortho        :     43.19s CPU     45.47s WALL (  313956 calls)
     cgsolve      :   6122.50s CPU   6411.08s WALL (  313956 calls)
     incdrhoscf   :    401.56s CPU    425.85s WALL (  313956 calls)
     dv_of_drho   :      1.58s CPU      1.61s WALL (     102 calls)
     mix_pot      :      0.40s CPU      0.45s WALL (     102 calls)
     psymdvscf    :      3.02s CPU      3.14s WALL (     102 calls)
 
     dvqpsi_us    :    109.82s CPU    115.03s WALL (   27702 calls)
     dvqpsi_us_on :     35.53s CPU     37.53s WALL (   27702 calls)
 
     cgsolve      :   6122.50s CPU   6411.08s WALL (  313956 calls)
     ch_psi       :   5907.92s CPU   6184.52s WALL ( 6205902 calls)
 
     ch_psi       :   5907.92s CPU   6184.52s WALL ( 6205902 calls)
     h_psi        :   5469.24s CPU   5721.98s WALL ( 6362360 calls)
     last         :    576.57s CPU    603.85s WALL ( 6205902 calls)
 
     h_psi        :   5469.24s CPU   5721.98s WALL ( 6362360 calls)
     add_vuspsi   :    310.63s CPU    326.35s WALL ( 6362360 calls)
 
     incdrhoscf   :    401.56s CPU    425.85s WALL (  313956 calls)
 
 
      General routines
     calbec       :    622.93s CPU    652.26s WALL (12709850 calls)
     fft          :      1.01s CPU      1.14s WALL (    1352 calls)
     ffts         :      4.92s CPU      5.54s WALL (   27989 calls)
     fftw         :   4986.21s CPU   5226.41s WALL (92135042 calls)
 
 
     PHONON       :      2h 8m CPU      2h14m WALL

 
   This run was terminated on:   3: 7:31   1Jun2022            

=------------------------------------------------------------------------------=
   JOB DONE.
=------------------------------------------------------------------------------=
