
     Program PHONON v.7.0 starts on  1Jun2022 at 22:21:50 

     This program is part of the open-source Quantum ESPRESSO suite
     for quantum simulation of materials; please cite
         "P. Giannozzi et al., J. Phys.:Condens. Matter 21 395502 (2009);
         "P. Giannozzi et al., J. Phys.:Condens. Matter 29 465901 (2017);
         "P. Giannozzi et al., J. Chem. Phys. 152 154105 (2020);
          URL http://www.quantum-espresso.org", 
     in publications or presentations arising from this work. More details at
     http://www.quantum-espresso.org/quote

     Parallel version (MPI), running on     8 processors

     MPI processes distributed on     1 nodes
     R & G space division:  proc/nbgrp/npool/nimage =       8
     2546 MiB available memory on the printing compute node when the environment starts
 
     Reading input from mob2_fonon_05.in

     Reading xml data from directory:

     ./tmp/mob2.save/

     IMPORTANT: XC functional enforced from input :
     Exchange-correlation= PBE
                           (   1   4   3   4   0   0   0)
     Any further DFT definition will be discarded
     Please, verify this is what you really want

 
     Parallelization info
     --------------------
     sticks:   dense  smooth     PW     G-vecs:    dense   smooth      PW
     Min         199      56     18                 6901     1046     192
     Max         200      57     19                 6904     1049     195
     Sum        1597     451    151                55227     8373    1545
 
     Using Slab Decomposition
 
     Reading collected, re-writing distributed wavefunctions


     Dynamical matrices for ( 3, 3, 3)  uniform grid of q-points
     (   6 q-points):
       N         xq(1)         xq(2)         xq(3) 
       1   0.000000000   0.000000000   0.000000000
       2   0.000000000   0.000000000   0.311376641
       3   0.000000000   0.384900179   0.000000000
       4   0.000000000   0.384900179   0.311376641
       5   0.333333333   0.577350269   0.000000000
       6   0.333333333   0.577350269   0.311376641

     Calculation of q =    0.3333333   0.5773503   0.0000000

     Subspace diagonalization in iterative solution of the eigenvalue problem:
     a serial algorithm will be used

 
     Parallelization info
     --------------------
     sticks:   dense  smooth     PW     G-vecs:    dense   smooth      PW
     Min         199      56     20                 6901     1046     236
     Max         200      57     21                 6904     1049     241
     Sum        1597     451    163                55227     8373    1907
 
     Using Slab Decomposition
 

     Title: 
     Phonon calc for qp05                                                       


     bravais-lattice index     =            4
     lattice parameter (alat)  =       5.8733  a.u.
     unit-cell volume          =     187.8355 (a.u.)^3
     number of atoms/cell      =            3
     number of atomic types    =            2
     number of electrons       =        19.00
     number of Kohn-Sham states=           20
     kinetic-energy cutoff     =      48.0000  Ry
     charge density cutoff     =     672.0000  Ry
     Exchange-correlation= PBE
                           (   1   4   3   4   0   0   0)

     celldm(1)=   5.873335  celldm(2)=   0.000000  celldm(3)=   1.070515
     celldm(4)=   0.000000  celldm(5)=   0.000000  celldm(6)=   0.000000

     crystal axes: (cart. coord. in units of alat)
               a(1) = (   1.000000   0.000000   0.000000 )  
               a(2) = (  -0.500000   0.866025   0.000000 )  
               a(3) = (   0.000000   0.000000   1.070515 )  

     reciprocal axes: (cart. coord. in units 2 pi/alat)
               b(1) = (  1.000000  0.577350  0.000000 )  
               b(2) = (  0.000000  1.154701  0.000000 )  
               b(3) = (  0.000000  0.000000  0.934130 )  


     PseudoPot. # 1 for Xx read from file:
     /home/marcocarmonaga/Apps/qe-7.0/pseudo/Nb1.00Mo0.00.upf
     MD5 check sum: e4b562b21cfca1bf7e2ab47e57cae993
     Pseudo is Norm-conserving, Zval = 13.0
     Generated using virtual.x code
     Using radial grid of  602 points, 12 beta functions with: 
                l(1) =   0
                l(2) =   0
                l(3) =   1
                l(4) =   1
                l(5) =   2
                l(6) =   2
                l(7) =   0
                l(8) =   0
                l(9) =   1
               l(10) =   1
               l(11) =   2
               l(12) =   2

     PseudoPot. # 2 for B  read from file:
     /home/marcocarmonaga/Apps/qe-7.0/pseudo/B_ONCV_PBE-1.2.upf
     MD5 check sum: eb3cbeacc2d324d57d903df00f564d27
     Pseudo is Norm-conserving, Zval =  3.0
     Generated using ONCVPSP code by D. R. Hamann
     Using radial grid of  602 points,  4 beta functions with: 
                l(1) =   0
                l(2) =   0
                l(3) =   1
                l(4) =   1

     atomic species   valence    mass     pseudopotential
        Mo            13.00    92.90600     Xx( 1.00)
        B              3.00    10.81000     B ( 1.00)

     24 Sym. Ops., with inversion, found



   Cartesian axes

     site n.     atom                  positions (alat units)
         1           Mo  tau(   1) = (   0.0000000   0.0000000   0.0000000  )
         2           B   tau(   2) = (   0.5000000   0.2886751   0.5352574  )
         3           B   tau(   3) = (   0.0000000   0.5773503   0.5352574  )

     number of k points=  1152  Gaussian smearing, width (Ry)=  0.0150

     Number of k-points >= 100: set verbosity='high' to print them.

     Dense  grid:    55227 G-vectors     FFT dimensions: (  50,  50,  54)

     Smooth grid:     8373 G-vectors     FFT dimensions: (  25,  25,  27)

     Estimated max dynamical RAM per process >      65.04 MB

     Estimated total dynamical RAM >     520.34 MB

     The potential is recalculated from file :
     ./tmp/_ph0/mob2.save/charge-density

     Starting wfcs are    0 atomic +   20 random wfcs

     Band Structure Calculation
     Davidson diagonalization with overlap

     ethr =  5.26E-11,  avg # of iterations = 22.9

     total cpu time spent up to now is       88.5 secs

     End of band structure calculation

     Number of k-points >= 100: set verbosity='high' to print the bands.

     the Fermi energy is    18.4715 ev

     Phonon calc for qp05                                                       

     bravais-lattice index     =            4
     lattice parameter (alat)  =       5.8733  a.u.
     unit-cell volume          =     187.8355 (a.u.)^3
     number of atoms/cell      =            3
     number of atomic types    =            2
     kinetic-energy cut-off    =      48.0000  Ry
     charge density cut-off    =     672.0000  Ry
     convergence threshold     =      1.0E-14
     beta                      =       0.7000
     number of iterations used =            4
     Exchange-correlation= PBE
                           (   1   4   3   4   0   0   0)


     celldm(1)=    5.87334  celldm(2)=    0.00000  celldm(3)=    1.07051
     celldm(4)=    0.00000  celldm(5)=    0.00000  celldm(6)=    0.00000

     crystal axes: (cart. coord. in units of alat)
               a(1) = (  1.0000  0.0000  0.0000 )  
               a(2) = ( -0.5000  0.8660  0.0000 )  
               a(3) = (  0.0000  0.0000  1.0705 )  

     reciprocal axes: (cart. coord. in units 2 pi/alat)
               b(1) = (  1.0000  0.5774  0.0000 )  
               b(2) = (  0.0000  1.1547  0.0000 )  
               b(3) = (  0.0000  0.0000  0.9341 )  


     Atoms inside the unit cell: 

     Cartesian axes

     site n.  atom      mass           positions (alat units)
        1     Mo  92.9060   tau(    1) = (    0.00000    0.00000    0.00000  )
        2     B   10.8100   tau(    2) = (    0.50000    0.28868    0.53526  )
        3     B   10.8100   tau(    3) = (    0.00000    0.57735    0.53526  )

     Computing dynamical matrix for 
                    q = (   0.3333333   0.5773503   0.0000000 )
 
     12 Sym.Ops. (no q -> -q+G )


     G cutoff =  587.1906  (   6903 G-vectors)     FFT grid: ( 50, 50, 54)
     G cutoff =  167.7687  (   1049 G-vectors)  smooth grid: ( 25, 25, 27)

     number of k points=  1152  Gaussian smearing, width (Ry)=  0.0150

     PseudoPot. # 1 for Xx read from file:
     /home/marcocarmonaga/Apps/qe-7.0/pseudo/Nb1.00Mo0.00.upf
     MD5 check sum: e4b562b21cfca1bf7e2ab47e57cae993
     Pseudo is Norm-conserving, Zval = 13.0
     Generated using virtual.x code
     Using radial grid of  602 points, 12 beta functions with: 
                l(1) =   0
                l(2) =   0
                l(3) =   1
                l(4) =   1
                l(5) =   2
                l(6) =   2
                l(7) =   0
                l(8) =   0
                l(9) =   1
               l(10) =   1
               l(11) =   2
               l(12) =   2

     PseudoPot. # 2 for B  read from file:
     /home/marcocarmonaga/Apps/qe-7.0/pseudo/B_ONCV_PBE-1.2.upf
     MD5 check sum: eb3cbeacc2d324d57d903df00f564d27
     Pseudo is Norm-conserving, Zval =  3.0
     Generated using ONCVPSP code by D. R. Hamann
     Using radial grid of  602 points,  4 beta functions with: 
                l(1) =   0
                l(2) =   0
                l(3) =   1
                l(4) =   1

     Mode symmetry, D_3h (-62m) point group:


     Atomic displacements:
     There are    6 irreducible representations

     Representation     1      1 modes -  To be done

     Representation     2      1 modes -  To be done

     Representation     3      2 modes -  To be done

     Representation     4      2 modes -  To be done

     Representation     5      1 modes -  To be done

     Representation     6      2 modes -  To be done



     Alpha used in Ewald sum =   2.8000
     PHONON       :   1m25.55s CPU   1m31.63s WALL



     Representation #   1 mode #   1

     Self-consistent Calculation

      iter #   1 total cpu time :   100.5 secs   av.it.:   6.7
      thresh= 1.000E-02 alpha_mix =  0.700 |ddv_scf|^2 =  2.374E-05

      iter #   2 total cpu time :   112.8 secs   av.it.:  12.4
      thresh= 4.872E-04 alpha_mix =  0.700 |ddv_scf|^2 =  3.266E-04

      iter #   3 total cpu time :   123.4 secs   av.it.:  10.5
      thresh= 1.807E-03 alpha_mix =  0.700 |ddv_scf|^2 =  1.330E-06

      iter #   4 total cpu time :   136.3 secs   av.it.:  10.9
      thresh= 1.153E-04 alpha_mix =  0.700 |ddv_scf|^2 =  3.288E-09

      iter #   5 total cpu time :   151.3 secs   av.it.:  11.1
      thresh= 5.734E-06 alpha_mix =  0.700 |ddv_scf|^2 =  2.652E-11

      iter #   6 total cpu time :   164.4 secs   av.it.:  10.2
      thresh= 5.150E-07 alpha_mix =  0.700 |ddv_scf|^2 =  2.097E-13

      iter #   7 total cpu time :   178.8 secs   av.it.:  11.0
      thresh= 4.579E-08 alpha_mix =  0.700 |ddv_scf|^2 =  2.062E-16

     End of self-consistent calculation

     Convergence has been achieved 


     Representation #   2 mode #   2

     Self-consistent Calculation

      iter #   1 total cpu time :   186.4 secs   av.it.:   4.7
      thresh= 1.000E-02 alpha_mix =  0.700 |ddv_scf|^2 =  1.974E-08

      iter #   2 total cpu time :   198.9 secs   av.it.:  10.7
      thresh= 1.405E-05 alpha_mix =  0.700 |ddv_scf|^2 =  1.964E-09

      iter #   3 total cpu time :   210.0 secs   av.it.:   9.9
      thresh= 4.432E-06 alpha_mix =  0.700 |ddv_scf|^2 =  2.336E-12

      iter #   4 total cpu time :   224.1 secs   av.it.:  11.8
      thresh= 1.529E-07 alpha_mix =  0.700 |ddv_scf|^2 =  2.325E-15

     End of self-consistent calculation

     Convergence has been achieved 


     Representation #   3 modes #   3   4

     Self-consistent Calculation

      iter #   1 total cpu time :   245.3 secs   av.it.:   6.7
      thresh= 1.000E-02 alpha_mix =  0.700 |ddv_scf|^2 =  1.401E-06

      iter #   2 total cpu time :   276.5 secs   av.it.:  13.6
      thresh= 1.184E-04 alpha_mix =  0.700 |ddv_scf|^2 =  3.464E-06

      iter #   3 total cpu time :   305.2 secs   av.it.:  12.4
      thresh= 1.861E-04 alpha_mix =  0.700 |ddv_scf|^2 =  5.486E-10

      iter #   4 total cpu time :   335.9 secs   av.it.:  13.1
      thresh= 2.342E-06 alpha_mix =  0.700 |ddv_scf|^2 =  4.014E-11

      iter #   5 total cpu time :   365.9 secs   av.it.:  13.3
      thresh= 6.336E-07 alpha_mix =  0.700 |ddv_scf|^2 =  2.887E-12

      iter #   6 total cpu time :   395.7 secs   av.it.:  13.2
      thresh= 1.699E-07 alpha_mix =  0.700 |ddv_scf|^2 =  1.357E-14

      iter #   7 total cpu time :   425.7 secs   av.it.:  13.0
      thresh= 1.165E-08 alpha_mix =  0.700 |ddv_scf|^2 =  5.670E-17

     End of self-consistent calculation

     Convergence has been achieved 


     Representation #   4 modes #   5   6

     Self-consistent Calculation

      iter #   1 total cpu time :   452.5 secs   av.it.:   8.8
      thresh= 1.000E-02 alpha_mix =  0.700 |ddv_scf|^2 =  2.528E-05

      iter #   2 total cpu time :   483.5 secs   av.it.:  13.5
      thresh= 5.028E-04 alpha_mix =  0.700 |ddv_scf|^2 =  5.766E-05

      iter #   3 total cpu time :   512.0 secs   av.it.:  12.2
      thresh= 7.593E-04 alpha_mix =  0.700 |ddv_scf|^2 =  7.547E-08

      iter #   4 total cpu time :   542.5 secs   av.it.:  13.2
      thresh= 2.747E-05 alpha_mix =  0.700 |ddv_scf|^2 =  1.985E-10

      iter #   5 total cpu time :   572.6 secs   av.it.:  13.0
      thresh= 1.409E-06 alpha_mix =  0.700 |ddv_scf|^2 =  5.625E-12

      iter #   6 total cpu time :   602.3 secs   av.it.:  12.9
      thresh= 2.372E-07 alpha_mix =  0.700 |ddv_scf|^2 =  2.126E-14

      iter #   7 total cpu time :   633.7 secs   av.it.:  13.3
      thresh= 1.458E-08 alpha_mix =  0.700 |ddv_scf|^2 =  1.519E-15

     End of self-consistent calculation

     Convergence has been achieved 


     Representation #   5 mode #   7

     Self-consistent Calculation

      iter #   1 total cpu time :   646.5 secs   av.it.:   7.9
      thresh= 1.000E-02 alpha_mix =  0.700 |ddv_scf|^2 =  8.650E-06

      iter #   2 total cpu time :   660.7 secs   av.it.:  12.1
      thresh= 2.941E-04 alpha_mix =  0.700 |ddv_scf|^2 =  9.510E-07

      iter #   3 total cpu time :   674.7 secs   av.it.:  11.9
      thresh= 9.752E-05 alpha_mix =  0.700 |ddv_scf|^2 =  9.255E-10

      iter #   4 total cpu time :   688.8 secs   av.it.:  11.9
      thresh= 3.042E-06 alpha_mix =  0.700 |ddv_scf|^2 =  3.841E-12

      iter #   5 total cpu time :   702.7 secs   av.it.:  11.9
      thresh= 1.960E-07 alpha_mix =  0.700 |ddv_scf|^2 =  7.748E-14

      iter #   6 total cpu time :   716.9 secs   av.it.:  12.0
      thresh= 2.784E-08 alpha_mix =  0.700 |ddv_scf|^2 =  8.315E-16

     End of self-consistent calculation

     Convergence has been achieved 


     Representation #   6 modes #   8   9

     Self-consistent Calculation

      iter #   1 total cpu time :   736.3 secs   av.it.:   5.9
      thresh= 1.000E-02 alpha_mix =  0.700 |ddv_scf|^2 =  5.421E-08

      iter #   2 total cpu time :   767.3 secs   av.it.:  13.5
      thresh= 2.328E-05 alpha_mix =  0.700 |ddv_scf|^2 =  1.852E-09

      iter #   3 total cpu time :   798.2 secs   av.it.:  13.4
      thresh= 4.304E-06 alpha_mix =  0.700 |ddv_scf|^2 =  8.381E-11

      iter #   4 total cpu time :   825.2 secs   av.it.:  11.5
      thresh= 9.155E-07 alpha_mix =  0.700 |ddv_scf|^2 =  1.241E-13

      iter #   5 total cpu time :   855.6 secs   av.it.:  13.1
      thresh= 3.522E-08 alpha_mix =  0.700 |ddv_scf|^2 =  3.128E-16

     End of self-consistent calculation

     Convergence has been achieved 
 
     Number of q in the star =    2
     List of q in the star:
          1   0.333333333   0.577350269   0.000000000
          2  -0.333333333  -0.577350269   0.000000000

     Diagonalizing the dynamical matrix

     q = (    0.333333333   0.577350269   0.000000000 ) 

 **************************************************************************
     freq (    1) =       5.800585 [THz] =     193.486681 [cm-1]
     freq (    2) =       6.755549 [THz] =     225.340851 [cm-1]
     freq (    3) =       6.755549 [THz] =     225.340851 [cm-1]
     freq (    4) =      14.237825 [THz] =     474.922718 [cm-1]
     freq (    5) =      14.237825 [THz] =     474.922718 [cm-1]
     freq (    6) =      17.172778 [THz] =     572.822202 [cm-1]
     freq (    7) =      20.485417 [THz] =     683.319974 [cm-1]
     freq (    8) =      20.485417 [THz] =     683.319974 [cm-1]
     freq (    9) =      23.770214 [THz] =     792.888983 [cm-1]
 **************************************************************************

     Mode symmetry, D_3h (-62m) point group:

     freq (   1-   1) =        193.5  [cm-1]   --> A''2               
     freq (   2-   3) =        225.3  [cm-1]   --> E'                 
     freq (   4-   5) =        474.9  [cm-1]   --> E''                
     freq (   6-   6) =        572.8  [cm-1]   --> A'_2               
     freq (   7-   8) =        683.3  [cm-1]   --> E'                 
     freq (   9-   9) =        792.9  [cm-1]   --> A'_1               
 
     init_run     :      0.13s CPU      0.13s WALL (       1 calls)
     electrons    :     82.49s CPU     88.38s WALL (       1 calls)

     Called by init_run:
     wfcinit      :      0.00s CPU      0.00s WALL (       1 calls)
     potinit      :      0.02s CPU      0.02s WALL (       1 calls)
     hinit0       :      0.03s CPU      0.03s WALL (       1 calls)

     Called by electrons:
     c_bands      :     82.46s CPU     88.35s WALL (       1 calls)
     v_of_rho     :      0.03s CPU      0.03s WALL (       2 calls)

     Called by c_bands:
     init_us_2    :      3.41s CPU      3.59s WALL (   29952 calls)
     init_us_2:cp :      3.32s CPU      3.50s WALL (   29952 calls)
     cegterg      :     77.96s CPU     83.49s WALL (    1763 calls)

     Called by *egterg:
     cdiaghg      :     24.97s CPU     26.22s WALL (   27572 calls)
     h_psi        :    561.26s CPU    594.26s WALL (  646860 calls)
     g_psi        :      0.19s CPU      0.20s WALL (   26420 calls)

     Called by h_psi:
     h_psi:calbec :     37.39s CPU     39.63s WALL (  646860 calls)
     vloc_psi     :    486.39s CPU    515.20s WALL (  646860 calls)
     add_vuspsi   :     30.32s CPU     32.06s WALL (  646860 calls)

     General routines
     calbec       :     65.40s CPU     69.23s WALL ( 1290881 calls)
     fft          :      0.43s CPU      0.48s WALL (     741 calls)
     ffts         :      0.57s CPU      0.60s WALL (    5350 calls)
     fftw         :    513.73s CPU    545.45s WALL ( 9694796 calls)
     interpolate  :      0.10s CPU      0.11s WALL (     112 calls)
 
     Parallel routines
 
     PHONON       :  13m29.03s CPU  14m16.38s WALL

     INITIALIZATION: 
     phq_setup    :      0.03s CPU      0.03s WALL (       1 calls)
     phq_init     :      2.44s CPU      2.47s WALL (       1 calls)
 
     phq_init     :      2.44s CPU      2.47s WALL (       1 calls)
     init_vloc    :      0.03s CPU      0.03s WALL (       2 calls)
     init_us_1    :      0.02s CPU      0.03s WALL (       2 calls)
     init_us_2    :      3.41s CPU      3.59s WALL (   29952 calls)
 
     DYNAMICAL MATRIX:
     dynmat0      :      2.06s CPU      2.08s WALL (       1 calls)
     phqscf       :    723.47s CPU    764.70s WALL (       1 calls)
     dynmatrix    :      0.00s CPU      0.00s WALL (       1 calls)
 
     phqscf       :    723.47s CPU    764.70s WALL (       1 calls)
     solve_linter :    719.93s CPU    761.10s WALL (       6 calls)
     drhodv       :      3.54s CPU      3.59s WALL (       6 calls)
 
     dynmat0      :      2.06s CPU      2.08s WALL (       1 calls)
     dynmat_us    :      2.05s CPU      2.06s WALL (       1 calls)
     d2ionq       :      0.00s CPU      0.00s WALL (       1 calls)
 
     dynmat_us    :      2.05s CPU      2.06s WALL (       1 calls)
 
     phqscf       :    723.47s CPU    764.70s WALL (       1 calls)
     solve_linter :    719.93s CPU    761.10s WALL (       6 calls)
 
     solve_linter :    719.93s CPU    761.10s WALL (       6 calls)
     dvqpsi_us    :     19.67s CPU     20.34s WALL (    5184 calls)
     sth_kernel   :    693.64s CPU    734.01s WALL (      36 calls)
     apply_dpot_b :     34.73s CPU     37.16s WALL (   26496 calls)
     ortho        :      4.20s CPU      4.46s WALL (   31680 calls)
     cgsolve      :    606.52s CPU    640.93s WALL (   31680 calls)
     incdrhoscf   :     39.63s CPU     42.34s WALL (   31680 calls)
     dv_of_drho   :      0.80s CPU      0.84s WALL (      55 calls)
     mix_pot      :      0.18s CPU      0.19s WALL (      36 calls)
     psymdvscf    :      5.01s CPU      5.07s WALL (      36 calls)
 
     dvqpsi_us    :     19.67s CPU     20.34s WALL (    5184 calls)
     dvqpsi_us_on :      6.75s CPU      6.96s WALL (    5184 calls)
 
     cgsolve      :    606.52s CPU    640.93s WALL (   31680 calls)
     ch_psi       :    586.43s CPU    619.53s WALL (  617525 calls)
 
     ch_psi       :    586.43s CPU    619.53s WALL (  617525 calls)
     h_psi        :    561.26s CPU    594.26s WALL (  646860 calls)
     last         :     57.27s CPU     60.52s WALL (  617525 calls)
 
     h_psi        :    561.26s CPU    594.26s WALL (  646860 calls)
     add_vuspsi   :     30.32s CPU     32.06s WALL (  646860 calls)
 
     incdrhoscf   :     39.63s CPU     42.34s WALL (   31680 calls)
 
 
      General routines
     calbec       :     65.40s CPU     69.23s WALL ( 1290881 calls)
     fft          :      0.43s CPU      0.48s WALL (     741 calls)
     ffts         :      0.57s CPU      0.60s WALL (    5350 calls)
     fftw         :    513.73s CPU    545.45s WALL ( 9694796 calls)
 
 
     PHONON       :  13m29.03s CPU  14m16.38s WALL

 
   This run was terminated on:  22:36: 7   1Jun2022            

=------------------------------------------------------------------------------=
   JOB DONE.
=------------------------------------------------------------------------------=
