
     Program PWSCF v.7.0 starts on 11Apr2022 at 19:32: 1 

     This program is part of the open-source Quantum ESPRESSO suite
     for quantum simulation of materials; please cite
         "P. Giannozzi et al., J. Phys.:Condens. Matter 21 395502 (2009);
         "P. Giannozzi et al., J. Phys.:Condens. Matter 29 465901 (2017);
         "P. Giannozzi et al., J. Chem. Phys. 152 154105 (2020);
          URL http://www.quantum-espresso.org", 
     in publications or presentations arising from this work. More details at
     http://www.quantum-espresso.org/quote

     Parallel version (MPI), running on     8 processors

     MPI processes distributed on     1 nodes
     R & G space division:  proc/nbgrp/npool/nimage =       8
     519 MiB available memory on the printing compute node when the environment starts
 
     Reading input from mob2_pw.in

     Current dimensions of program PWSCF are:
     Max number of different atomic species (ntypx) = 10
     Max number of k-points (npk) =  40000
     Max angular momentum in pseudopotentials (lmaxx) =  4

     Subspace diagonalization in iterative solution of the eigenvalue problem:
     a serial algorithm will be used

 
     Parallelization info
     --------------------
     sticks:   dense  smooth     PW     G-vecs:    dense   smooth      PW
     Min          43      43     14                  669      669     127
     Max          44      44     17                  672      672     128
     Sum         349     349    121                 5363     5363    1021
 
     Using Slab Decomposition
 


     bravais-lattice index     =            4
     lattice parameter (alat)  =       5.9094  a.u.
     unit-cell volume          =     184.0801 (a.u.)^3
     number of atoms/cell      =            3
     number of atomic types    =            2
     number of electrons       =        20.00
     number of Kohn-Sham states=           20
     kinetic-energy cutoff     =      36.0000  Ry
     charge density cutoff     =     144.0000  Ry
     scf convergence threshold =      1.0E-06
     mixing beta               =       0.7000
     number of iterations used =            8  plain     mixing
     Exchange-correlation= PBE
                           (   1   4   3   4   0   0   0)

     celldm(1)=   5.909440  celldm(2)=   0.000000  celldm(3)=   1.030000
     celldm(4)=   0.000000  celldm(5)=   0.000000  celldm(6)=   0.000000

     crystal axes: (cart. coord. in units of alat)
               a(1) = (   1.000000   0.000000   0.000000 )  
               a(2) = (  -0.500000   0.866025   0.000000 )  
               a(3) = (   0.000000   0.000000   1.030000 )  

     reciprocal axes: (cart. coord. in units 2 pi/alat)
               b(1) = (  1.000000  0.577350  0.000000 )  
               b(2) = (  0.000000  1.154701  0.000000 )  
               b(3) = (  0.000000  0.000000  0.970874 )  


     PseudoPot. # 1 for Mo read from file:
     /home/marcocarmonaga/Apps/qe-7.0/pseudo/Mo_ONCV_PBE-1.2.upf
     MD5 check sum: 2665c9f4159700498d9a5f7573bd8e9f
     Pseudo is Norm-conserving, Zval = 14.0
     Generated using ONCVPSP code by D. R. Hamann
     Using radial grid of  602 points,  6 beta functions with: 
                l(1) =   0
                l(2) =   0
                l(3) =   1
                l(4) =   1
                l(5) =   2
                l(6) =   2

     PseudoPot. # 2 for B  read from file:
     /home/marcocarmonaga/Apps/qe-7.0/pseudo/B_ONCV_PBE-1.2.upf
     MD5 check sum: eb3cbeacc2d324d57d903df00f564d27
     Pseudo is Norm-conserving, Zval =  3.0
     Generated using ONCVPSP code by D. R. Hamann
     Using radial grid of  602 points,  4 beta functions with: 
                l(1) =   0
                l(2) =   0
                l(3) =   1
                l(4) =   1

     atomic species   valence    mass     pseudopotential
        Mo            14.00    95.95000     Mo( 1.00)
        B              3.00    10.81000     B ( 1.00)

     24 Sym. Ops., with inversion, found



   Cartesian axes

     site n.     atom                  positions (alat units)
         1           Mo  tau(   1) = (   0.0000000   0.0000000   0.0000000  )
         2           B   tau(   2) = (   0.5000000   0.2886751   0.5150000  )
         3           B   tau(   3) = (  -0.0000000   0.5773503   0.5150000  )

     number of k points=   333  Gaussian smearing, width (Ry)=  0.0150

     Number of k-points >= 100: set verbosity='high' to print them.

     Dense  grid:     5363 G-vectors     FFT dimensions: (  24,  24,  24)

     Estimated max dynamical RAM per process >      11.04 MB

     Estimated total dynamical RAM >      88.29 MB

     Initial potential from superposition of free atoms

     starting charge      19.8751, renormalised to      20.0000
     Starting wfcs are random

     total cpu time spent up to now is        2.0 secs

     Self-consistent Calculation

     iteration #  1     ecut=    36.00 Ry     beta= 0.70
     Davidson diagonalization with overlap
     ethr =  1.00E-02,  avg # of iterations =  8.2

     total cpu time spent up to now is       10.7 secs

     total energy              =    -148.31291122 Ry
     estimated scf accuracy    <       0.42992256 Ry

     iteration #  2     ecut=    36.00 Ry     beta= 0.70
     Davidson diagonalization with overlap
     ethr =  2.15E-03,  avg # of iterations =  2.3

     total cpu time spent up to now is       14.1 secs

     total energy              =    -148.29455874 Ry
     estimated scf accuracy    <       1.45037617 Ry

     iteration #  3     ecut=    36.00 Ry     beta= 0.70
     Davidson diagonalization with overlap
     ethr =  2.15E-03,  avg # of iterations =  1.9

     total cpu time spent up to now is       19.0 secs

     total energy              =    -148.55836372 Ry
     estimated scf accuracy    <       0.00357198 Ry

     iteration #  4     ecut=    36.00 Ry     beta= 0.70
     Davidson diagonalization with overlap
     ethr =  1.79E-05,  avg # of iterations =  4.5

     total cpu time spent up to now is       24.3 secs

     total energy              =    -148.55901083 Ry
     estimated scf accuracy    <       0.00033958 Ry

     iteration #  5     ecut=    36.00 Ry     beta= 0.70
     Davidson diagonalization with overlap
     ethr =  1.70E-06,  avg # of iterations =  2.9

     total cpu time spent up to now is       28.1 secs

     total energy              =    -148.55908345 Ry
     estimated scf accuracy    <       0.00002063 Ry

     iteration #  6     ecut=    36.00 Ry     beta= 0.70
     Davidson diagonalization with overlap
     ethr =  1.03E-07,  avg # of iterations =  1.1

     total cpu time spent up to now is       31.1 secs

     End of self-consistent calculation

     Number of k-points >= 100: set verbosity='high' to print the bands.

     the Fermi energy is    18.7257 ev

!    total energy              =    -148.55908573 Ry
     estimated scf accuracy    <       0.00000062 Ry
     smearing contrib. (-TS)   =      -0.00233227 Ry
     internal energy E=F+TS    =    -148.55675346 Ry

     The total energy is F=E-TS. E is the sum of the following terms:
     one-electron contribution =     -20.99115728 Ry
     hartree contribution      =      22.22395699 Ry
     xc contribution           =     -20.12280462 Ry
     ewald contribution        =    -129.66674856 Ry

     convergence has been achieved in   6 iterations

     Writing all to output data dir ./tmp/mob2.save/
 
     init_run     :      1.15s CPU      1.40s WALL (       1 calls)
     electrons    :     24.62s CPU     29.05s WALL (       1 calls)

     Called by init_run:
     wfcinit      :      0.94s CPU      1.07s WALL (       1 calls)
     potinit      :      0.13s CPU      0.17s WALL (       1 calls)
     hinit0       :      0.06s CPU      0.13s WALL (       1 calls)

     Called by electrons:
     c_bands      :     21.38s CPU     23.84s WALL (       6 calls)
     sum_band     :      3.22s CPU      5.19s WALL (       6 calls)
     v_of_rho     :      0.13s CPU      0.16s WALL (       7 calls)
     mix_rho      :      0.00s CPU      0.00s WALL (       6 calls)

     Called by c_bands:
     init_us_2    :      0.23s CPU      0.30s WALL (    4329 calls)
     init_us_2:cp :      0.22s CPU      0.29s WALL (    4329 calls)
     cegterg      :     20.35s CPU     22.76s WALL (    1998 calls)

     Called by *egterg:
     cdiaghg      :      4.68s CPU      5.15s WALL (    8967 calls)
     h_psi        :     13.83s CPU     15.59s WALL (    9300 calls)
     g_psi        :      0.05s CPU      0.05s WALL (    6969 calls)

     Called by h_psi:
     h_psi:calbec :      0.48s CPU      0.51s WALL (    9300 calls)
     vloc_psi     :     12.93s CPU     14.58s WALL (    9300 calls)
     add_vuspsi   :      0.32s CPU      0.39s WALL (    9300 calls)

     General routines
     calbec       :      0.46s CPU      0.48s WALL (    9300 calls)
     fft          :      0.14s CPU      0.23s WALL (      69 calls)
     ffts         :      0.04s CPU      0.04s WALL (       6 calls)
     fftw         :     14.72s CPU     18.07s WALL (  293384 calls)
 
     Parallel routines
 
     PWSCF        :     27.04s CPU     31.95s WALL

 
   This run was terminated on:  19:32:33  11Apr2022            

=------------------------------------------------------------------------------=
   JOB DONE.
=------------------------------------------------------------------------------=
