
     Program BANDS v.7.0 starts on 28Apr2022 at  8:58:16 

     This program is part of the open-source Quantum ESPRESSO suite
     for quantum simulation of materials; please cite
         "P. Giannozzi et al., J. Phys.:Condens. Matter 21 395502 (2009);
         "P. Giannozzi et al., J. Phys.:Condens. Matter 29 465901 (2017);
         "P. Giannozzi et al., J. Chem. Phys. 152 154105 (2020);
          URL http://www.quantum-espresso.org", 
     in publications or presentations arising from this work. More details at
     http://www.quantum-espresso.org/quote

     Parallel version (MPI), running on     8 processors

     MPI processes distributed on     1 nodes
     R & G space division:  proc/nbgrp/npool/nimage =       8
     1413 MiB available memory on the printing compute node when the environment starts
 

     Reading xml data from directory:

     ./tmp/mob2.save/

     IMPORTANT: XC functional enforced from input :
     Exchange-correlation= PBE
                           (   1   4   3   4   0   0   0)
     Any further DFT definition will be discarded
     Please, verify this is what you really want

 
     Parallelization info
     --------------------
     sticks:   dense  smooth     PW     G-vecs:    dense   smooth      PW
     Min          35      35     11                  499      499      97
     Max          36      36     12                  502      502     100
     Sum         283     283     91                 3999     3999     787
 
     Using Slab Decomposition
 
     Reading collected, re-writing distributed wavefunctions
     high-symmetry point:  0.0000 0.0000 0.0000   x coordinate   0.0000
     high-symmetry point:  0.0000 0.5774 0.0000   x coordinate   0.5774
     high-symmetry point:  0.3333 0.5774 0.0000   x coordinate   0.9107
     high-symmetry point:  0.0000 0.0000 0.0000   x coordinate   1.5774
     high-symmetry point:  0.0000 0.0000 0.4683   x coordinate   2.0457
     high-symmetry point:  0.0000 0.5774 0.4683   x coordinate   2.6230
     high-symmetry point:  0.3333 0.5774 0.4683   x coordinate   2.9563
     high-symmetry point:  0.0000 0.0000 0.4683   x coordinate   3.6230

     Plottable bands (eV) written to file mob2_bands.bands.gnu
     Bands written to file mob2_bands.bands

 **************************************************************************

                    xk=(   0.00000,   0.00000,   0.00000  )

     point group D_6h(6/mmm)
     there are 12 classes
     the character table:

       E     2C6   2C3   C2    3C2'  3C2'' i     2S3   2S6   s_h   3s_d  3s_v 
A_1g   1.00  1.00  1.00  1.00  1.00  1.00  1.00  1.00  1.00  1.00  1.00  1.00
A_2g   1.00  1.00  1.00  1.00 -1.00 -1.00  1.00  1.00  1.00  1.00 -1.00 -1.00
B_1g   1.00 -1.00  1.00 -1.00  1.00 -1.00  1.00 -1.00  1.00 -1.00  1.00 -1.00
B_2g   1.00 -1.00  1.00 -1.00 -1.00  1.00  1.00 -1.00  1.00 -1.00 -1.00  1.00
E_1g   2.00  1.00 -1.00 -2.00  0.00  0.00  2.00  1.00 -1.00 -2.00  0.00  0.00
E_2g   2.00 -1.00 -1.00  2.00  0.00  0.00  2.00 -1.00 -1.00  2.00  0.00  0.00
A_1u   1.00  1.00  1.00  1.00  1.00  1.00 -1.00 -1.00 -1.00 -1.00 -1.00 -1.00
A_2u   1.00  1.00  1.00  1.00 -1.00 -1.00 -1.00 -1.00 -1.00 -1.00  1.00  1.00
B_1u   1.00 -1.00  1.00 -1.00  1.00 -1.00 -1.00  1.00 -1.00  1.00 -1.00  1.00
B_2u   1.00 -1.00  1.00 -1.00 -1.00  1.00 -1.00  1.00 -1.00  1.00  1.00 -1.00
E_1u   2.00  1.00 -1.00 -2.00  0.00  0.00 -2.00 -1.00  1.00  2.00  0.00  0.00
E_2u   2.00 -1.00 -1.00  2.00  0.00  0.00 -2.00  1.00  1.00 -2.00  0.00  0.00

     the symmetry operations in each class and the name of the first element:

     E        1
                                                                 
     2C6      5    6
                                                                 
     2C3      7    8
                                                                 
     C2       2
                                                                 
     3C2'     4   12   11
                                                                 
     3C2''    3    9   10
                                                                 
     i       13
                                                                 
     2S3     17   18
                                                                 
     2S6     19   20
                                                                 
     s_h     14
                                                                 
     3s_d    16   24   23
                                                                 
     3s_v    15   21   22
                                                                 

     Band symmetry, D_6h(6/mmm) point group:

     e(  1 -  1) =    -36.52998  eV     1   --> A_1g           
     e(  2 -  2) =    -10.84124  eV     1   --> A_2u           
     e(  3 -  4) =    -10.16706  eV     2   --> E_1u           
     e(  5 -  5) =      8.82203  eV     1   --> A_1g           
     e(  6 -  6) =     18.83549  eV     1   --> A_1g           
     e(  7 -  8) =     19.20958  eV     2   --> E_2g           
     e(  9 -  9) =     21.52231  eV     1   --> A_2u           
     e( 10 - 11) =     25.74195  eV     2   --> E_1g           
     e( 12 - 13) =     28.73981  eV     2   --> E_2g           
     e( 14 - 15) =     30.47320  eV     2   --> E_1u           
     e( 16 - 16) =     31.44595  eV     1   --> B_2u           
     e( 17 - 17) =     34.87058  eV     1   --> B_1g           
     e( 18 - 18) =     37.71280  eV     1   --> A_1g           
     e( 19 - 20) =     43.51688  eV     2   --> E_2u           

 **************************************************************************

 **************************************************************************

                    xk=(   0.00000,   0.01443,   0.00000  )

     point group C_2v (mm2) 
     there are  4 classes
     the character table:

       E     C2    s_v   s_v' 
A_1    1.00  1.00  1.00  1.00
A_2    1.00  1.00 -1.00 -1.00
B_1    1.00 -1.00  1.00 -1.00
B_2    1.00 -1.00 -1.00  1.00

     the symmetry operations in each class and the name of the first element:

     E        1
                                                                 
     C2       2
                                                                 
     s_v      3
                                                                 
     s_v'     4
                                                                 

     Band symmetry, C_2v (mm2)  point group:

     e(  1 -  1) =    -36.52968  eV     1   --> A_1  D_1  S_1  
     e(  2 -  2) =    -10.84087  eV     1   --> B_2  D_4  S_4  
     e(  3 -  3) =    -10.16928  eV     1   --> A_1  D_1  S_1  
     e(  4 -  4) =    -10.16755  eV     1   --> B_1  D_3  S_3  
     e(  5 -  5) =      8.82605  eV     1   --> A_1  D_1  S_1  
     e(  6 -  6) =     18.83896  eV     1   --> A_1  D_1  S_1  
     e(  7 -  7) =     19.20149  eV     1   --> A_1  D_1  S_1  
     e(  8 -  8) =     19.21211  eV     1   --> B_1  D_3  S_3  
     e(  9 -  9) =     21.51002  eV     1   --> B_2  D_4  S_4  
     e( 10 - 10) =     25.73986  eV     1   --> A_2  D_2  S_2  
     e( 11 - 11) =     25.75740  eV     1   --> B_2  D_4  S_4  
     e( 12 - 12) =     28.70251  eV     1   --> A_1  D_1  S_1  
     e( 13 - 13) =     28.70774  eV     1   --> B_1  D_3  S_3  
     e( 14 - 14) =     30.50820  eV     1   --> A_1  D_1  S_1  
     e( 15 - 15) =     30.51441  eV     1   --> B_1  D_3  S_3  
     e( 16 - 16) =     31.46175  eV     1   --> A_1  D_1  S_1  
     e( 17 - 17) =     34.85265  eV     1   --> B_2  D_4  S_4  
     e( 18 - 18) =     37.71471  eV     1   --> A_1  D_1  S_1  
     e( 19 - 19) =     43.52522  eV     1   --> A_2  D_2  S_2  
     e( 20 - 20) =     43.54612  eV     1   --> B_2  D_4  S_4  

 **************************************************************************

 **************************************************************************

                    xk=(   0.00000,   0.02887,   0.00000  )

     Band symmetry, C_2v (mm2)  point group:

     e(  1 -  1) =    -36.52880  eV     1   --> A_1  D_1  S_1  
     e(  2 -  2) =    -10.83975  eV     1   --> B_2  D_4  S_4  
     e(  3 -  3) =    -10.17595  eV     1   --> A_1  D_1  S_1  
     e(  4 -  4) =    -10.16902  eV     1   --> B_1  D_3  S_3  
     e(  5 -  5) =      8.83819  eV     1   --> A_1  D_1  S_1  
     e(  6 -  6) =     18.84931  eV     1   --> A_1  D_1  S_1  
     e(  7 -  7) =     19.17775  eV     1   --> A_1  D_1  S_1  
     e(  8 -  8) =     19.21967  eV     1   --> B_1  D_3  S_3  
     e(  9 -  9) =     21.47375  eV     1   --> B_2  D_4  S_4  
     e( 10 - 10) =     25.73359  eV     1   --> A_2  D_2  S_2  
     e( 11 - 11) =     25.80307  eV     1   --> B_2  D_4  S_4  
     e( 12 - 12) =     28.59953  eV     1   --> A_1  D_1  S_1  
     e( 13 - 13) =     28.61976  eV     1   --> B_1  D_3  S_3  
     e( 14 - 14) =     30.60577  eV     1   --> A_1  D_1  S_1  
     e( 15 - 15) =     30.62996  eV     1   --> B_1  D_3  S_3  
     e( 16 - 16) =     31.50896  eV     1   --> A_1  D_1  S_1  
     e( 17 - 17) =     34.79973  eV     1   --> B_2  D_4  S_4  
     e( 18 - 18) =     37.72036  eV     1   --> A_1  D_1  S_1  
     e( 19 - 19) =     43.55022  eV     1   --> A_2  D_2  S_2  
     e( 20 - 20) =     43.63299  eV     1   --> B_2  D_4  S_4  

 **************************************************************************

 **************************************************************************

                    xk=(   0.00000,   0.04330,   0.00000  )

     Band symmetry, C_2v (mm2)  point group:

     e(  1 -  1) =    -36.52733  eV     1   --> A_1  D_1  S_1  
     e(  2 -  2) =    -10.83790  eV     1   --> B_2  D_4  S_4  
     e(  3 -  3) =    -10.18700  eV     1   --> A_1  D_1  S_1  
     e(  4 -  4) =    -10.17147  eV     1   --> B_1  D_3  S_3  
     e(  5 -  5) =      8.85831  eV     1   --> A_1  D_1  S_1  
     e(  6 -  6) =     18.86639  eV     1   --> A_1  D_1  S_1  
     e(  7 -  7) =     19.13881  eV     1   --> A_1  D_1  S_1  
     e(  8 -  8) =     19.23237  eV     1   --> B_1  D_3  S_3  
     e(  9 -  9) =     21.41537  eV     1   --> B_2  D_4  S_4  
     e( 10 - 10) =     25.72320  eV     1   --> A_2  D_2  S_2  
     e( 11 - 11) =     25.87713  eV     1   --> B_2  D_4  S_4  
     e( 12 - 12) =     28.45017  eV     1   --> A_1  D_1  S_1  
     e( 13 - 13) =     28.49333  eV     1   --> B_1  D_3  S_3  
     e( 14 - 14) =     30.74686  eV     1   --> A_1  D_1  S_1  
     e( 15 - 15) =     30.80298  eV     1   --> B_1  D_3  S_3  
     e( 16 - 16) =     31.58686  eV     1   --> A_1  D_1  S_1  
     e( 17 - 17) =     34.71575  eV     1   --> B_2  D_4  S_4  
     e( 18 - 18) =     37.72976  eV     1   --> A_1  D_1  S_1  
     e( 19 - 19) =     43.59196  eV     1   --> A_2  D_2  S_2  
     e( 20 - 20) =     43.77519  eV     1   --> B_2  D_4  S_4  

 **************************************************************************

 **************************************************************************

                    xk=(   0.00000,   0.05774,   0.00000  )

     Band symmetry, C_2v (mm2)  point group:

     e(  1 -  1) =    -36.52529  eV     1   --> A_1  D_1  S_1  
     e(  2 -  2) =    -10.83531  eV     1   --> B_2  D_4  S_4  
     e(  3 -  3) =    -10.20235  eV     1   --> A_1  D_1  S_1  
     e(  4 -  4) =    -10.17488  eV     1   --> B_1  D_3  S_3  
     e(  5 -  5) =      8.88618  eV     1   --> A_1  D_1  S_1  
     e(  6 -  6) =     18.88991  eV     1   --> A_1  D_1  S_1  
     e(  7 -  7) =     19.08404  eV     1   --> A_1  D_1  S_1  
     e(  8 -  8) =     19.24961  eV     1   --> B_1  D_3  S_3  
     e(  9 -  9) =     21.33696  eV     1   --> B_2  D_4  S_4  
     e( 10 - 10) =     25.70880  eV     1   --> A_2  D_2  S_2  
     e( 11 - 11) =     25.97682  eV     1   --> B_2  D_4  S_4  
     e( 12 - 12) =     28.26781  eV     1   --> A_1  D_1  S_1  
     e( 13 - 13) =     28.34447  eV     1   --> B_1  D_3  S_3  
     e( 14 - 14) =     30.91521  eV     1   --> A_1  D_1  S_1  
     e( 15 - 15) =     31.01602  eV     1   --> B_1  D_3  S_3  
     e( 16 - 16) =     31.69355  eV     1   --> A_1  D_1  S_1  
     e( 17 - 17) =     34.60167  eV     1   --> B_2  D_4  S_4  
     e( 18 - 18) =     37.74230  eV     1   --> A_1  D_1  S_1  
     e( 19 - 19) =     43.65001  eV     1   --> A_2  D_2  S_2  
     e( 20 - 20) =     43.96881  eV     1   --> B_2  D_4  S_4  

 **************************************************************************

 **************************************************************************

                    xk=(   0.00000,   0.07217,   0.00000  )

     Band symmetry, C_2v (mm2)  point group:

     e(  1 -  1) =    -36.52270  eV     1   --> A_1  D_1  S_1  
     e(  2 -  2) =    -10.83202  eV     1   --> B_2  D_4  S_4  
     e(  3 -  3) =    -10.22189  eV     1   --> A_1  D_1  S_1  
     e(  4 -  4) =    -10.17922  eV     1   --> B_1  D_3  S_3  
     e(  5 -  5) =      8.92167  eV     1   --> A_1  D_1  S_1  
     e(  6 -  6) =     18.91923  eV     1   --> A_1  D_1  S_1  
     e(  7 -  7) =     19.01534  eV     1   --> A_1  D_1  S_1  
     e(  8 -  8) =     19.27162  eV     1   --> B_1  D_3  S_3  
     e(  9 -  9) =     21.24123  eV     1   --> B_2  D_4  S_4  
     e( 10 - 10) =     25.69052  eV     1   --> A_2  D_2  S_2  
     e( 11 - 11) =     26.09876  eV     1   --> B_2  D_4  S_4  
     e( 12 - 12) =     28.06582  eV     1   --> A_1  D_1  S_1  
     e( 13 - 13) =     28.18580  eV     1   --> B_1  D_3  S_3  
     e( 14 - 14) =     31.10031  eV     1   --> A_1  D_1  S_1  
     e( 15 - 15) =     31.25773  eV     1   --> B_1  D_3  S_3  
     e( 16 - 16) =     31.82682  eV     1   --> A_1  D_1  S_1  
     e( 17 - 17) =     34.46452  eV     1   --> B_2  D_4  S_4  
     e( 18 - 18) =     37.75657  eV     1   --> A_1  D_1  S_1  
     e( 19 - 19) =     43.72475  eV     1   --> A_2  D_2  S_2  
     e( 20 - 20) =     44.20952  eV     1   --> B_2  D_4  S_4  

 **************************************************************************

 **************************************************************************

                    xk=(   0.00000,   0.08660,   0.00000  )

     Band symmetry, C_2v (mm2)  point group:

     e(  1 -  1) =    -36.51957  eV     1   --> A_1  D_1  S_1  
     e(  2 -  2) =    -10.82803  eV     1   --> B_2  D_4  S_4  
     e(  3 -  3) =    -10.24545  eV     1   --> A_1  D_1  S_1  
     e(  4 -  4) =    -10.18447  eV     1   --> B_1  D_3  S_3  
     e(  5 -  5) =      8.96499  eV     1   --> A_1  D_1  S_1  
     e(  6 -  6) =     18.92912  eV     1   --> A_1  D_1  S_1  
     e(  7 -  7) =     18.95888  eV     1   --> A_1  D_1  S_1  
     e(  8 -  8) =     19.29752  eV     1   --> B_1  D_3  S_3  
     e(  9 -  9) =     21.13192  eV     1   --> B_2  D_4  S_4  
     e( 10 - 10) =     25.66851  eV     1   --> A_2  D_2  S_2  
     e( 11 - 11) =     26.23949  eV     1   --> B_2  D_4  S_4  
     e( 12 - 12) =     27.85553  eV     1   --> A_1  D_1  S_1  
     e( 13 - 13) =     28.02277  eV     1   --> B_1  D_3  S_3  
     e( 14 - 14) =     31.29430  eV     1   --> A_1  D_1  S_1  
     e( 15 - 15) =     31.52129  eV     1   --> B_1  D_3  S_3  
     e( 16 - 16) =     31.98454  eV     1   --> A_1  D_1  S_1  
     e( 17 - 17) =     34.30754  eV     1   --> B_2  D_4  S_4  
     e( 18 - 18) =     37.77353  eV     1   --> A_1  D_1  S_1  
     e( 19 - 19) =     43.81504  eV     1   --> A_2  D_2  S_2  
     e( 20 - 20) =     44.49278  eV     1   --> B_2  D_4  S_4  

 **************************************************************************

 **************************************************************************

                    xk=(   0.00000,   0.10104,   0.00000  )

     Band symmetry, C_2v (mm2)  point group:

     e(  1 -  1) =    -36.51590  eV     1   --> A_1  D_1  S_1  
     e(  2 -  2) =    -10.82338  eV     1   --> B_2  D_4  S_4  
     e(  3 -  3) =    -10.27286  eV     1   --> A_1  D_1  S_1  
     e(  4 -  4) =    -10.19058  eV     1   --> B_1  D_3  S_3  
     e(  5 -  5) =      9.01571  eV     1   --> A_1  D_1  S_1  
     e(  6 -  6) =     18.83746  eV     1   --> A_1  D_1  S_1  
     e(  7 -  7) =     18.99687  eV     1   --> A_1  D_1  S_1  
     e(  8 -  8) =     19.32763  eV     1   --> B_1  D_3  S_3  
     e(  9 -  9) =     21.01159  eV     1   --> B_2  D_4  S_4  
     e( 10 - 10) =     25.64298  eV     1   --> A_2  D_2  S_2  
     e( 11 - 11) =     26.39533  eV     1   --> B_2  D_4  S_4  
     e( 12 - 12) =     27.64167  eV     1   --> A_1  D_1  S_1  
     e( 13 - 13) =     27.86206  eV     1   --> B_1  D_3  S_3  
     e( 14 - 14) =     31.49338  eV     1   --> A_1  D_1  S_1  
     e( 15 - 15) =     31.80184  eV     1   --> B_1  D_3  S_3  
     e( 16 - 16) =     32.16478  eV     1   --> A_1  D_1  S_1  
     e( 17 - 17) =     34.13674  eV     1   --> B_2  D_4  S_4  
     e( 18 - 18) =     37.79293  eV     1   --> A_1  D_1  S_1  
     e( 19 - 19) =     43.92127  eV     1   --> A_2  D_2  S_2  
     e( 20 - 20) =     44.81368  eV     1   --> B_2  D_4  S_4  

 **************************************************************************

 **************************************************************************

                    xk=(   0.00000,   0.11547,   0.00000  )

     Band symmetry, C_2v (mm2)  point group:

     e(  1 -  1) =    -36.51173  eV     1   --> A_1  D_1  S_1  
     e(  2 -  2) =    -10.81808  eV     1   --> B_2  D_4  S_4  
     e(  3 -  3) =    -10.30392  eV     1   --> A_1  D_1  S_1  
     e(  4 -  4) =    -10.19752  eV     1   --> B_1  D_3  S_3  
     e(  5 -  5) =      9.07314  eV     1   --> A_1  D_1  S_1  
     e(  6 -  6) =     18.73251  eV     1   --> A_1  D_1  S_1  
     e(  7 -  7) =     19.04171  eV     1   --> A_1  D_1  S_1  
     e(  8 -  8) =     19.36135  eV     1   --> B_1  D_3  S_3  
     e(  9 -  9) =     20.88175  eV     1   --> B_2  D_4  S_4  
     e( 10 - 10) =     25.61414  eV     1   --> A_2  D_2  S_2  
     e( 11 - 11) =     26.56252  eV     1   --> B_2  D_4  S_4  
     e( 12 - 12) =     27.42824  eV     1   --> A_1  D_1  S_1  
     e( 13 - 13) =     27.70619  eV     1   --> B_1  D_3  S_3  
     e( 14 - 14) =     31.69474  eV     1   --> A_1  D_1  S_1  
     e( 15 - 15) =     32.09635  eV     1   --> B_1  D_3  S_3  
     e( 16 - 16) =     32.36478  eV     1   --> A_1  D_1  S_1  
     e( 17 - 17) =     33.95732  eV     1   --> B_2  D_4  S_4  
     e( 18 - 18) =     37.81305  eV     1   --> A_1  D_1  S_1  
     e( 19 - 19) =     44.04299  eV     1   --> A_2  D_2  S_2  
     e( 20 - 20) =     45.16769  eV     1   --> B_2  D_4  S_4  

 **************************************************************************

 **************************************************************************

                    xk=(   0.00000,   0.12990,   0.00000  )

     Band symmetry, C_2v (mm2)  point group:

     e(  1 -  1) =    -36.50708  eV     1   --> A_1  D_1  S_1  
     e(  2 -  2) =    -10.81217  eV     1   --> B_2  D_4  S_4  
     e(  3 -  3) =    -10.33838  eV     1   --> A_1  D_1  S_1  
     e(  4 -  4) =    -10.20525  eV     1   --> B_1  D_3  S_3  
     e(  5 -  5) =      9.13816  eV     1   --> A_1  D_1  S_1  
     e(  6 -  6) =     18.61776  eV     1   --> A_1  D_1  S_1  
     e(  7 -  7) =     19.09037  eV     1   --> A_1  D_1  S_1  
     e(  8 -  8) =     19.39828  eV     1   --> B_1  D_3  S_3  
     e(  9 -  9) =     20.74685  eV     1   --> B_2  D_4  S_4  
     e( 10 - 10) =     25.58225  eV     1   --> A_2  D_2  S_2  
     e( 11 - 11) =     26.73803  eV     1   --> B_2  D_4  S_4  
     e( 12 - 12) =     27.21854  eV     1   --> A_1  D_1  S_1  
     e( 13 - 13) =     27.55727  eV     1   --> B_1  D_3  S_3  
     e( 14 - 14) =     31.89578  eV     1   --> A_1  D_1  S_1  
     e( 15 - 15) =     32.40287  eV     1   --> B_1  D_3  S_3  
     e( 16 - 16) =     32.58308  eV     1   --> A_1  D_1  S_1  
     e( 17 - 17) =     33.77418  eV     1   --> B_2  D_4  S_4  
     e( 18 - 18) =     37.83354  eV     1   --> A_1  D_1  S_1  
     e( 19 - 19) =     44.17995  eV     1   --> A_2  D_2  S_2  
     e( 20 - 20) =     45.55062  eV     1   --> B_2  D_4  S_4  

 **************************************************************************

 **************************************************************************

                    xk=(   0.00000,   0.14434,   0.00000  )

     Band symmetry, C_2v (mm2)  point group:

     e(  1 -  1) =    -36.50197  eV     1   --> A_1  D_1  S_1  
     e(  2 -  2) =    -10.80568  eV     1   --> B_2  D_4  S_4  
     e(  3 -  3) =    -10.37600  eV     1   --> A_1  D_1  S_1  
     e(  4 -  4) =    -10.21371  eV     1   --> B_1  D_3  S_3  
     e(  5 -  5) =      9.20973  eV     1   --> A_1  D_1  S_1  
     e(  6 -  6) =     18.49466  eV     1   --> A_1  D_1  S_1  
     e(  7 -  7) =     19.14171  eV     1   --> A_1  D_1  S_1  
     e(  8 -  8) =     19.43858  eV     1   --> B_1  D_3  S_3  
     e(  9 -  9) =     20.60706  eV     1   --> B_2  D_4  S_4  
     e( 10 - 10) =     25.54757  eV     1   --> A_2  D_2  S_2  
     e( 11 - 11) =     26.91797  eV     1   --> B_2  D_4  S_4  
     e( 12 - 12) =     27.01531  eV     1   --> A_1  D_1  S_1  
     e( 13 - 13) =     27.41773  eV     1   --> B_1  D_3  S_3  
     e( 14 - 14) =     32.09417  eV     1   --> A_1  D_1  S_1  
     e( 15 - 15) =     32.71885  eV     1   --> B_1  D_3  S_3  
     e( 16 - 16) =     32.81913  eV     1   --> A_1  D_1  S_1  
     e( 17 - 17) =     33.59337  eV     1   --> B_2  D_4  S_4  
     e( 18 - 18) =     37.85203  eV     1   --> A_1  D_1  S_1  
     e( 19 - 19) =     44.33148  eV     1   --> A_2  D_2  S_2  
     e( 20 - 20) =     45.95853  eV     1   --> B_2  D_4  S_4  

 **************************************************************************

 **************************************************************************

                    xk=(   0.00000,   0.15877,   0.00000  )

     Band symmetry, C_2v (mm2)  point group:

     e(  1 -  1) =    -36.49643  eV     1   --> A_1  D_1  S_1  
     e(  2 -  2) =    -10.79865  eV     1   --> B_2  D_4  S_4  
     e(  3 -  3) =    -10.41650  eV     1   --> A_1  D_1  S_1  
     e(  4 -  4) =    -10.22284  eV     1   --> B_1  D_3  S_3  
     e(  5 -  5) =      9.28828  eV     1   --> A_1  D_1  S_1  
     e(  6 -  6) =     18.36457  eV     1   --> A_1  D_1  S_1  
     e(  7 -  7) =     19.19463  eV     1   --> A_1  D_1  S_1  
     e(  8 -  8) =     19.48100  eV     1   --> B_1  D_3  S_3  
     e(  9 -  9) =     20.46538  eV     1   --> B_2  D_4  S_4  
     e( 10 - 10) =     25.51039  eV     1   --> A_2  D_2  S_2  
     e( 11 - 11) =     26.82160  eV     1   --> A_1  D_1  S_1  
     e( 12 - 12) =     27.09950  eV     1   --> B_2  D_4  S_4  
     e( 13 - 13) =     27.28702  eV     1   --> B_1  D_3  S_3  
     e( 14 - 14) =     32.28655  eV     1   --> A_1  D_1  S_1  
     e( 15 - 15) =     33.04760  eV     1   --> B_1  D_3  S_3  
     e( 16 - 16) =     33.07228  eV     1   --> A_1  D_1  S_1  
     e( 17 - 17) =     33.41713  eV     1   --> B_2  D_4  S_4  
     e( 18 - 18) =     37.86935  eV     1   --> A_1  D_1  S_1  
     e( 19 - 19) =     44.49791  eV     1   --> A_2  D_2  S_2  
     e( 20 - 20) =     46.38805  eV     1   --> B_2  D_4  S_4  

 **************************************************************************

 **************************************************************************

                    xk=(   0.00000,   0.17321,   0.00000  )

     Band symmetry, C_2v (mm2)  point group:

     e(  1 -  1) =    -36.49051  eV     1   --> A_1  D_1  S_1  
     e(  2 -  2) =    -10.79112  eV     1   --> B_2  D_4  S_4  
     e(  3 -  3) =    -10.45959  eV     1   --> A_1  D_1  S_1  
     e(  4 -  4) =    -10.23259  eV     1   --> B_1  D_3  S_3  
     e(  5 -  5) =      9.37292  eV     1   --> A_1  D_1  S_1  
     e(  6 -  6) =     18.22797  eV     1   --> A_1  D_1  S_1  
     e(  7 -  7) =     19.24784  eV     1   --> A_1  D_1  S_1  
     e(  8 -  8) =     19.52454  eV     1   --> B_1  D_3  S_3  
     e(  9 -  9) =     20.32249  eV     1   --> B_2  D_4  S_4  
     e( 10 - 10) =     25.47099  eV     1   --> A_2  D_2  S_2  
     e( 11 - 11) =     26.63856  eV     1   --> A_1  D_1  S_1  
     e( 12 - 12) =     27.16670  eV     1   --> B_1  D_3  S_3  
     e( 13 - 13) =     27.27883  eV     1   --> B_2  D_4  S_4  
     e( 14 - 14) =     32.47076  eV     1   --> A_1  D_1  S_1  
     e( 15 - 15) =     33.25037  eV     1   --> B_2  D_4  S_4  
     e( 16 - 16) =     33.34247  eV     1   --> A_1  D_1  S_1  
     e( 17 - 17) =     33.38313  eV     1   --> B_1  D_3  S_3  
     e( 18 - 18) =     37.88318  eV     1   --> A_1  D_1  S_1  
     e( 19 - 19) =     44.67810  eV     1   --> A_2  D_2  S_2  
     e( 20 - 20) =     46.83572  eV     1   --> B_2  D_4  S_4  

 **************************************************************************

 **************************************************************************

                    xk=(   0.00000,   0.18764,   0.00000  )

     Band symmetry, C_2v (mm2)  point group:

     e(  1 -  1) =    -36.48423  eV     1   --> A_1  D_1  S_1  
     e(  2 -  2) =    -10.78314  eV     1   --> B_2  D_4  S_4  
     e(  3 -  3) =    -10.50496  eV     1   --> A_1  D_1  S_1  
     e(  4 -  4) =    -10.24289  eV     1   --> B_1  D_3  S_3  
     e(  5 -  5) =      9.46366  eV     1   --> A_1  D_1  S_1  
     e(  6 -  6) =     18.08641  eV     1   --> A_1  D_1  S_1  
     e(  7 -  7) =     19.29995  eV     1   --> A_1  D_1  S_1  
     e(  8 -  8) =     19.56947  eV     1   --> B_1  D_3  S_3  
     e(  9 -  9) =     20.17955  eV     1   --> B_2  D_4  S_4  
     e( 10 - 10) =     25.42969  eV     1   --> A_2  D_2  S_2  
     e( 11 - 11) =     26.46910  eV     1   --> A_1  D_1  S_1  
     e( 12 - 12) =     27.05773  eV     1   --> B_1  D_3  S_3  
     e( 13 - 13) =     27.45226  eV     1   --> B_2  D_4  S_4  
     e( 14 - 14) =     32.64506  eV     1   --> A_1  D_1  S_1  
     e( 15 - 15) =     33.09804  eV     1   --> B_2  D_4  S_4  
     e( 16 - 16) =     33.62919  eV     1   --> A_1  D_1  S_1  
     e( 17 - 17) =     33.72856  eV     1   --> B_1  D_3  S_3  
     e( 18 - 18) =     37.89211  eV     1   --> A_1  D_1  S_1  
     e( 19 - 19) =     44.87181  eV     1   --> A_2  D_2  S_2  
     e( 20 - 20) =     47.29825  eV     1   --> B_2  D_4  S_4  

 **************************************************************************

 **************************************************************************

                    xk=(   0.00000,   0.20207,   0.00000  )

     Band symmetry, C_2v (mm2)  point group:

     e(  1 -  1) =    -36.47763  eV     1   --> A_1  D_1  S_1  
     e(  2 -  2) =    -10.77476  eV     1   --> B_2  D_4  S_4  
     e(  3 -  3) =    -10.55231  eV     1   --> A_1  D_1  S_1  
     e(  4 -  4) =    -10.25368  eV     1   --> B_1  D_3  S_3  
     e(  5 -  5) =      9.56001  eV     1   --> A_1  D_1  S_1  
     e(  6 -  6) =     17.94062  eV     1   --> A_1  D_1  S_1  
     e(  7 -  7) =     19.34944  eV     1   --> A_1  D_1  S_1  
     e(  8 -  8) =     19.61461  eV     1   --> B_1  D_3  S_3  
     e(  9 -  9) =     20.03751  eV     1   --> B_2  D_4  S_4  
     e( 10 - 10) =     25.38679  eV     1   --> A_2  D_2  S_2  
     e( 11 - 11) =     26.31527  eV     1   --> A_1  D_1  S_1  
     e( 12 - 12) =     26.96057  eV     1   --> B_1  D_3  S_3  
     e( 13 - 13) =     27.61591  eV     1   --> B_2  D_4  S_4  
     e( 14 - 14) =     32.80830  eV     1   --> A_1  D_1  S_1  
     e( 15 - 15) =     32.96464  eV     1   --> B_2  D_4  S_4  
     e( 16 - 16) =     33.93127  eV     1   --> A_1  D_1  S_1  
     e( 17 - 17) =     34.07992  eV     1   --> B_1  D_3  S_3  
     e( 18 - 18) =     37.89464  eV     1   --> A_1  D_1  S_1  
     e( 19 - 19) =     45.07857  eV     1   --> A_2  D_2  S_2  
     e( 20 - 20) =     47.77219  eV     1   --> B_2  D_4  S_4  

 **************************************************************************

 **************************************************************************

                    xk=(   0.00000,   0.21651,   0.00000  )

     Band symmetry, C_2v (mm2)  point group:

     e(  1 -  1) =    -36.47075  eV     1   --> A_1  D_1  S_1  
     e(  2 -  2) =    -10.76601  eV     1   --> B_2  D_4  S_4  
     e(  3 -  3) =    -10.60131  eV     1   --> A_1  D_1  S_1  
     e(  4 -  4) =    -10.26488  eV     1   --> B_1  D_3  S_3  
     e(  5 -  5) =      9.66175  eV     1   --> A_1  D_1  S_1  
     e(  6 -  6) =     17.79161  eV     1   --> A_1  D_1  S_1  
     e(  7 -  7) =     19.39471  eV     1   --> A_1  D_1  S_1  
     e(  8 -  8) =     19.65965  eV     1   --> B_1  D_3  S_3  
     e(  9 -  9) =     19.89718  eV     1   --> B_2  D_4  S_4  
     e( 10 - 10) =     25.34260  eV     1   --> A_2  D_2  S_2  
     e( 11 - 11) =     26.17932  eV     1   --> A_1  D_1  S_1  
     e( 12 - 12) =     26.87575  eV     1   --> B_1  D_3  S_3  
     e( 13 - 13) =     27.76576  eV     1   --> B_2  D_4  S_4  
     e( 14 - 14) =     32.85466  eV     1   --> B_2  D_4  S_4  
     e( 15 - 15) =     32.95984  eV     1   --> A_1  D_1  S_1  
     e( 16 - 16) =     34.24741  eV     1   --> A_1  D_1  S_1  
     e( 17 - 17) =     34.43845  eV     1   --> B_1  D_3  S_3  
     e( 18 - 18) =     37.88935  eV     1   --> A_1  D_1  S_1  
     e( 19 - 19) =     45.29784  eV     1   --> A_2  D_2  S_2  
     e( 20 - 20) =     48.25364  eV     1   --> B_2  D_4  S_4  

 **************************************************************************

 **************************************************************************

                    xk=(   0.00000,   0.23094,   0.00000  )

     Band symmetry, C_2v (mm2)  point group:

     e(  1 -  1) =    -36.46363  eV     1   --> A_1  D_1  S_1  
     e(  2 -  2) =    -10.75697  eV     1   --> B_2  D_4  S_4  
     e(  3 -  3) =    -10.65162  eV     1   --> A_1  D_1  S_1  
     e(  4 -  4) =    -10.27643  eV     1   --> B_1  D_3  S_3  
     e(  5 -  5) =      9.76859  eV     1   --> A_1  D_1  S_1  
     e(  6 -  6) =     17.64014  eV     1   --> A_1  D_1  S_1  
     e(  7 -  7) =     19.43413  eV     1   --> A_1  D_1  S_1  
     e(  8 -  8) =     19.70401  eV     1   --> B_1  D_3  S_3  
     e(  9 -  9) =     19.75925  eV     1   --> B_2  D_4  S_4  
     e( 10 - 10) =     25.29745  eV     1   --> A_2  D_2  S_2  
     e( 11 - 11) =     26.06335  eV     1   --> A_1  D_1  S_1  
     e( 12 - 12) =     26.80363  eV     1   --> B_1  D_3  S_3  
     e( 13 - 13) =     27.89780  eV     1   --> B_2  D_4  S_4  
     e( 14 - 14) =     32.77245  eV     1   --> B_2  D_4  S_4  
     e( 15 - 15) =     33.09938  eV     1   --> A_1  D_1  S_1  
     e( 16 - 16) =     34.57595  eV     1   --> A_1  D_1  S_1  
     e( 17 - 17) =     34.80371  eV     1   --> B_1  D_3  S_3  
     e( 18 - 18) =     37.87489  eV     1   --> A_1  D_1  S_1  
     e( 19 - 19) =     45.52910  eV     1   --> A_2  D_2  S_2  
     e( 20 - 20) =     48.73770  eV     1   --> B_2  D_4  S_4  

 **************************************************************************

 **************************************************************************

                    xk=(   0.00000,   0.24537,   0.00000  )

     Band symmetry, C_2v (mm2)  point group:

     e(  1 -  1) =    -36.45633  eV     1   --> A_1  D_1  S_1  
     e(  2 -  2) =    -10.74767  eV     1   --> B_2  D_4  S_4  
     e(  3 -  3) =    -10.70293  eV     1   --> A_1  D_1  S_1  
     e(  4 -  4) =    -10.28825  eV     1   --> B_1  D_3  S_3  
     e(  5 -  5) =      9.88033  eV     1   --> A_1  D_1  S_1  
     e(  6 -  6) =     17.48694  eV     1   --> A_1  D_1  S_1  
     e(  7 -  7) =     19.46617  eV     1   --> A_1  D_1  S_1  
     e(  8 -  8) =     19.62450  eV     1   --> B_2  D_4  S_4  
     e(  9 -  9) =     19.74713  eV     1   --> B_1  D_3  S_3  
     e( 10 - 10) =     25.25163  eV     1   --> A_2  D_2  S_2  
     e( 11 - 11) =     25.96949  eV     1   --> A_1  D_1  S_1  
     e( 12 - 12) =     26.74450  eV     1   --> B_1  D_3  S_3  
     e( 13 - 13) =     28.00865  eV     1   --> B_2  D_4  S_4  
     e( 14 - 14) =     32.72189  eV     1   --> B_2  D_4  S_4  
     e( 15 - 15) =     33.22743  eV     1   --> A_1  D_1  S_1  
     e( 16 - 16) =     34.91508  eV     1   --> A_1  D_1  S_1  
     e( 17 - 17) =     35.17552  eV     1   --> B_1  D_3  S_3  
     e( 18 - 18) =     37.84823  eV     1   --> A_1  D_1  S_1  
     e( 19 - 19) =     45.77220  eV     1   --> A_2  D_2  S_2  
     e( 20 - 20) =     49.01621  eV     1   --> A_1  D_1  S_1  

 **************************************************************************

 **************************************************************************

                    xk=(   0.00000,   0.25981,   0.00000  )

     Band symmetry, C_2v (mm2)  point group:

     e(  1 -  1) =    -36.44887  eV     1   --> A_1  D_1  S_1  
     e(  2 -  2) =    -10.75489  eV     1   --> A_1  D_1  S_1  
     e(  3 -  3) =    -10.73818  eV     1   --> B_2  D_4  S_4  
     e(  4 -  4) =    -10.30027  eV     1   --> B_1  D_3  S_3  
     e(  5 -  5) =      9.99634  eV     1   --> A_1  D_1  S_1  
     e(  6 -  6) =     17.33258  eV     1   --> A_1  D_1  S_1  
     e(  7 -  7) =     19.48933  eV     1   --> A_1  D_1  S_1  
     e(  8 -  8) =     19.49296  eV     1   --> B_2  D_4  S_4  
     e(  9 -  9) =     19.78847  eV     1   --> B_1  D_3  S_3  
     e( 10 - 10) =     25.20545  eV     1   --> A_2  D_2  S_2  
     e( 11 - 11) =     25.89916  eV     1   --> A_1  D_1  S_1  
     e( 12 - 12) =     26.69838  eV     1   --> B_1  D_3  S_3  
     e( 13 - 13) =     28.09475  eV     1   --> B_2  D_4  S_4  
     e( 14 - 14) =     32.70601  eV     1   --> B_2  D_4  S_4  
     e( 15 - 15) =     33.34257  eV     1   --> A_1  D_1  S_1  
     e( 16 - 16) =     35.26256  eV     1   --> A_1  D_1  S_1  
     e( 17 - 17) =     35.55301  eV     1   --> B_1  D_3  S_3  
     e( 18 - 18) =     37.81266  eV     1   --> A_1  D_1  S_1  
     e( 19 - 19) =     46.02567  eV     1   --> A_2  D_2  S_2  
     e( 20 - 20) =     48.91273  eV     1   --> A_1  D_1  S_1  

 **************************************************************************

 **************************************************************************

                    xk=(   0.00000,   0.27424,   0.00000  )

     Band symmetry, C_2v (mm2)  point group:

     e(  1 -  1) =    -36.44130  eV     1   --> A_1  D_1  S_1  
     e(  2 -  2) =    -10.80719  eV     1   --> A_1  D_1  S_1  
     e(  3 -  3) =    -10.72856  eV     1   --> B_2  D_4  S_4  
     e(  4 -  4) =    -10.31241  eV     1   --> B_1  D_3  S_3  
     e(  5 -  5) =     10.11648  eV     1   --> A_1  D_1  S_1  
     e(  6 -  6) =     17.17759  eV     1   --> A_1  D_1  S_1  
     e(  7 -  7) =     19.36530  eV     1   --> B_2  D_4  S_4  
     e(  8 -  8) =     19.50244  eV     1   --> A_1  D_1  S_1  
     e(  9 -  9) =     19.82758  eV     1   --> B_1  D_3  S_3  
     e( 10 - 10) =     25.15921  eV     1   --> A_2  D_2  S_2  
     e( 11 - 11) =     25.85399  eV     1   --> A_1  D_1  S_1  
     e( 12 - 12) =     26.66530  eV     1   --> B_1  D_3  S_3  
     e( 13 - 13) =     28.15463  eV     1   --> B_2  D_4  S_4  
     e( 14 - 14) =     32.72651  eV     1   --> B_2  D_4  S_4  
     e( 15 - 15) =     33.44542  eV     1   --> A_1  D_1  S_1  
     e( 16 - 16) =     35.61566  eV     1   --> A_1  D_1  S_1  
     e( 17 - 17) =     35.93597  eV     1   --> B_1  D_3  S_3  
     e( 18 - 18) =     37.76665  eV     1   --> A_1  D_1  S_1  
     e( 19 - 19) =     46.28929  eV     1   --> A_2  D_2  S_2  
     e( 20 - 20) =     48.78668  eV     1   --> A_1  D_1  S_1  

 **************************************************************************

 **************************************************************************

                    xk=(   0.00000,   0.28868,   0.00000  )

     Band symmetry, C_2v (mm2)  point group:

     e(  1 -  1) =    -36.43368  eV     1   --> A_1  D_1  S_1  
     e(  2 -  2) =    -10.85949  eV     1   --> A_1  D_1  S_1  
     e(  3 -  3) =    -10.71886  eV     1   --> B_2  D_4  S_4  
     e(  4 -  4) =    -10.32460  eV     1   --> B_1  D_3  S_3  
     e(  5 -  5) =     10.24039  eV     1   --> A_1  D_1  S_1  
     e(  6 -  6) =     17.02244  eV     1   --> A_1  D_1  S_1  
     e(  7 -  7) =     19.24188  eV     1   --> B_2  D_4  S_4  
     e(  8 -  8) =     19.50466  eV     1   --> A_1  D_1  S_1  
     e(  9 -  9) =     19.86404  eV     1   --> B_1  D_3  S_3  
     e( 10 - 10) =     25.11318  eV     1   --> A_2  D_2  S_2  
     e( 11 - 11) =     25.83503  eV     1   --> A_1  D_1  S_1  
     e( 12 - 12) =     26.64510  eV     1   --> B_1  D_3  S_3  
     e( 13 - 13) =     28.18804  eV     1   --> B_2  D_4  S_4  
     e( 14 - 14) =     32.78351  eV     1   --> B_2  D_4  S_4  
     e( 15 - 15) =     33.53583  eV     1   --> A_1  D_1  S_1  
     e( 16 - 16) =     35.97026  eV     1   --> A_1  D_1  S_1  
     e( 17 - 17) =     36.32396  eV     1   --> B_1  D_3  S_3  
     e( 18 - 18) =     37.71232  eV     1   --> A_1  D_1  S_1  
     e( 19 - 19) =     46.56241  eV     1   --> A_2  D_2  S_2  
     e( 20 - 20) =     48.64016  eV     1   --> A_1  D_1  S_1  

 **************************************************************************

 **************************************************************************

                    xk=(   0.00000,   0.30311,   0.00000  )

     Band symmetry, C_2v (mm2)  point group:

     e(  1 -  1) =    -36.42604  eV     1   --> A_1  D_1  S_1  
     e(  2 -  2) =    -10.91148  eV     1   --> A_1  D_1  S_1  
     e(  3 -  3) =    -10.70914  eV     1   --> B_2  D_4  S_4  
     e(  4 -  4) =    -10.33676  eV     1   --> B_1  D_3  S_3  
     e(  5 -  5) =     10.36775  eV     1   --> A_1  D_1  S_1  
     e(  6 -  6) =     16.86750  eV     1   --> A_1  D_1  S_1  
     e(  7 -  7) =     19.12301  eV     1   --> B_2  D_4  S_4  
     e(  8 -  8) =     19.49556  eV     1   --> A_1  D_1  S_1  
     e(  9 -  9) =     19.89753  eV     1   --> B_1  D_3  S_3  
     e( 10 - 10) =     25.06764  eV     1   --> A_2  D_2  S_2  
     e( 11 - 11) =     25.84287  eV     1   --> A_1  D_1  S_1  
     e( 12 - 12) =     26.63747  eV     1   --> B_1  D_3  S_3  
     e( 13 - 13) =     28.19627  eV     1   --> B_2  D_4  S_4  
     e( 14 - 14) =     32.87543  eV     1   --> B_2  D_4  S_4  
     e( 15 - 15) =     33.61356  eV     1   --> A_1  D_1  S_1  
     e( 16 - 16) =     36.31847  eV     1   --> A_1  D_1  S_1  
     e( 17 - 17) =     36.71649  eV     1   --> B_1  D_3  S_3  
     e( 18 - 18) =     37.65607  eV     1   --> A_1  D_1  S_1  
     e( 19 - 19) =     46.84428  eV     1   --> A_2  D_2  S_2  
     e( 20 - 20) =     48.47649  eV     1   --> A_1  D_1  S_1  

 **************************************************************************

 **************************************************************************

                    xk=(   0.00000,   0.31754,   0.00000  )

     Band symmetry, C_2v (mm2)  point group:

     e(  1 -  1) =    -36.41844  eV     1   --> A_1  D_1  S_1  
     e(  2 -  2) =    -10.96284  eV     1   --> A_1  D_1  S_1  
     e(  3 -  3) =    -10.69946  eV     1   --> B_2  D_4  S_4  
     e(  4 -  4) =    -10.34881  eV     1   --> B_1  D_3  S_3  
     e(  5 -  5) =     10.49817  eV     1   --> A_1  D_1  S_1  
     e(  6 -  6) =     16.71312  eV     1   --> A_1  D_1  S_1  
     e(  7 -  7) =     19.00897  eV     1   --> B_2  D_4  S_4  
     e(  8 -  8) =     19.47515  eV     1   --> A_1  D_1  S_1  
     e(  9 -  9) =     19.92782  eV     1   --> B_1  D_3  S_3  
     e( 10 - 10) =     25.02287  eV     1   --> A_2  D_2  S_2  
     e( 11 - 11) =     25.87753  eV     1   --> A_1  D_1  S_1  
     e( 12 - 12) =     26.64192  eV     1   --> B_1  D_3  S_3  
     e( 13 - 13) =     28.18192  eV     1   --> B_2  D_4  S_4  
     e( 14 - 14) =     32.99927  eV     1   --> B_2  D_4  S_4  
     e( 15 - 15) =     33.67820  eV     1   --> A_1  D_1  S_1  
     e( 16 - 16) =     36.64093  eV     1   --> A_1  D_1  S_1  
     e( 17 - 17) =     37.11303  eV     1   --> B_1  D_3  S_3  
     e( 18 - 18) =     37.61634  eV     1   --> A_1  D_1  S_1  
     e( 19 - 19) =     47.13411  eV     1   --> A_2  D_2  S_2  
     e( 20 - 20) =     48.29949  eV     1   --> A_1  D_1  S_1  

 **************************************************************************

 **************************************************************************

                    xk=(   0.00000,   0.33198,   0.00000  )

     Band symmetry, C_2v (mm2)  point group:

     e(  1 -  1) =    -36.41093  eV     1   --> A_1  D_1  S_1  
     e(  2 -  2) =    -11.01327  eV     1   --> A_1  D_1  S_1  
     e(  3 -  3) =    -10.68989  eV     1   --> B_2  D_4  S_4  
     e(  4 -  4) =    -10.36069  eV     1   --> B_1  D_3  S_3  
     e(  5 -  5) =     10.63005  eV     1   --> A_1  D_1  S_1  
     e(  6 -  6) =     16.55953  eV     1   --> A_1  D_1  S_1  
     e(  7 -  7) =     18.89999  eV     1   --> B_2  D_4  S_4  
     e(  8 -  8) =     19.44395  eV     1   --> A_1  D_1  S_1  
     e(  9 -  9) =     19.95475  eV     1   --> B_1  D_3  S_3  
     e( 10 - 10) =     24.97910  eV     1   --> A_2  D_2  S_2  
     e( 11 - 11) =     25.93826  eV     1   --> A_1  D_1  S_1  
     e( 12 - 12) =     26.65776  eV     1   --> B_1  D_3  S_3  
     e( 13 - 13) =     28.14845  eV     1   --> B_2  D_4  S_4  
     e( 14 - 14) =     33.15100  eV     1   --> B_2  D_4  S_4  
     e( 15 - 15) =     33.72914  eV     1   --> A_1  D_1  S_1  
     e( 16 - 16) =     36.88355  eV     1   --> A_1  D_1  S_1  
     e( 17 - 17) =     37.51288  eV     1   --> B_1  D_3  S_3  
     e( 18 - 18) =     37.64515  eV     1   --> A_1  D_1  S_1  
     e( 19 - 19) =     47.43105  eV     1   --> A_2  D_2  S_2  
     e( 20 - 20) =     47.94130  eV     1   --> B_1  D_3  S_3  

 **************************************************************************

 **************************************************************************

                    xk=(   0.00000,   0.34641,   0.00000  )

     Band symmetry, C_2v (mm2)  point group:

     e(  1 -  1) =    -36.40354  eV     1   --> A_1  D_1  S_1  
     e(  2 -  2) =    -11.06248  eV     1   --> A_1  D_1  S_1  
     e(  3 -  3) =    -10.68048  eV     1   --> B_2  D_4  S_4  
     e(  4 -  4) =    -10.37232  eV     1   --> B_1  D_3  S_3  
     e(  5 -  5) =     10.76537  eV     1   --> A_1  D_1  S_1  
     e(  6 -  6) =     16.40705  eV     1   --> A_1  D_1  S_1  
     e(  7 -  7) =     18.79630  eV     1   --> B_2  D_4  S_4  
     e(  8 -  8) =     19.40290  eV     1   --> A_1  D_1  S_1  
     e(  9 -  9) =     19.97830  eV     1   --> B_1  D_3  S_3  
     e( 10 - 10) =     24.93659  eV     1   --> A_2  D_2  S_2  
     e( 11 - 11) =     26.02455  eV     1   --> A_1  D_1  S_1  
     e( 12 - 12) =     26.68423  eV     1   --> B_1  D_3  S_3  
     e( 13 - 13) =     28.09976  eV     1   --> B_2  D_4  S_4  
     e( 14 - 14) =     33.32610  eV     1   --> B_2  D_4  S_4  
     e( 15 - 15) =     33.76553  eV     1   --> A_1  D_1  S_1  
     e( 16 - 16) =     36.97055  eV     1   --> A_1  D_1  S_1  
     e( 17 - 17) =     37.82243  eV     1   --> A_1  D_1  S_1  
     e( 18 - 18) =     37.91550  eV     1   --> B_1  D_3  S_3  
     e( 19 - 19) =     47.48605  eV     1   --> B_1  D_3  S_3  
     e( 20 - 20) =     47.73414  eV     1   --> A_2  D_2  S_2  

 **************************************************************************

 **************************************************************************

                    xk=(   0.00000,   0.36084,   0.00000  )

     Band symmetry, C_2v (mm2)  point group:

     e(  1 -  1) =    -36.39633  eV     1   --> A_1  D_1  S_1  
     e(  2 -  2) =    -11.11018  eV     1   --> A_1  D_1  S_1  
     e(  3 -  3) =    -10.67128  eV     1   --> B_2  D_4  S_4  
     e(  4 -  4) =    -10.38363  eV     1   --> B_1  D_3  S_3  
     e(  5 -  5) =     10.90266  eV     1   --> A_1  D_1  S_1  
     e(  6 -  6) =     16.25647  eV     1   --> A_1  D_1  S_1  
     e(  7 -  7) =     18.69816  eV     1   --> B_2  D_4  S_4  
     e(  8 -  8) =     19.35330  eV     1   --> A_1  D_1  S_1  
     e(  9 -  9) =     19.99854  eV     1   --> B_1  D_3  S_3  
     e( 10 - 10) =     24.89554  eV     1   --> A_2  D_2  S_2  
     e( 11 - 11) =     26.13500  eV     1   --> A_1  D_1  S_1  
     e( 12 - 12) =     26.72032  eV     1   --> B_1  D_3  S_3  
     e( 13 - 13) =     28.04101  eV     1   --> B_2  D_4  S_4  
     e( 14 - 14) =     33.52033  eV     1   --> B_2  D_4  S_4  
     e( 15 - 15) =     33.78730  eV     1   --> A_1  D_1  S_1  
     e( 16 - 16) =     36.93048  eV     1   --> A_1  D_1  S_1  
     e( 17 - 17) =     38.12177  eV     1   --> A_1  D_1  S_1  
     e( 18 - 18) =     38.32007  eV     1   --> B_1  D_3  S_3  
     e( 19 - 19) =     47.04808  eV     1   --> B_1  D_3  S_3  
     e( 20 - 20) =     47.71616  eV     1   --> A_1  D_1  S_1  

 **************************************************************************

 **************************************************************************

                    xk=(   0.00000,   0.37528,   0.00000  )

     Band symmetry, C_2v (mm2)  point group:

     e(  1 -  1) =    -36.38934  eV     1   --> A_1  D_1  S_1  
     e(  2 -  2) =    -11.15613  eV     1   --> A_1  D_1  S_1  
     e(  3 -  3) =    -10.66237  eV     1   --> B_2  D_4  S_4  
     e(  4 -  4) =    -10.39455  eV     1   --> B_1  D_3  S_3  
     e(  5 -  5) =     11.04057  eV     1   --> A_1  D_1  S_1  
     e(  6 -  6) =     16.10678  eV     1   --> A_1  D_1  S_1  
     e(  7 -  7) =     18.60558  eV     1   --> B_2  D_4  S_4  
     e(  8 -  8) =     19.29661  eV     1   --> A_1  D_1  S_1  
     e(  9 -  9) =     20.01531  eV     1   --> B_1  D_3  S_3  
     e( 10 - 10) =     24.85618  eV     1   --> A_2  D_2  S_2  
     e( 11 - 11) =     26.26644  eV     1   --> A_1  D_1  S_1  
     e( 12 - 12) =     26.76475  eV     1   --> B_1  D_3  S_3  
     e( 13 - 13) =     27.97296  eV     1   --> B_2  D_4  S_4  
     e( 14 - 14) =     33.72796  eV     1   --> B_2  D_4  S_4  
     e( 15 - 15) =     33.79036  eV     1   --> A_1  D_1  S_1  
     e( 16 - 16) =     36.82997  eV     1   --> A_1  D_1  S_1  
     e( 17 - 17) =     38.46925  eV     1   --> A_1  D_1  S_1  
     e( 18 - 18) =     38.72388  eV     1   --> B_1  D_3  S_3  
     e( 19 - 19) =     46.62770  eV     1   --> B_1  D_3  S_3  
     e( 20 - 20) =     47.51529  eV     1   --> A_1  D_1  S_1  

 **************************************************************************

 **************************************************************************

                    xk=(   0.00000,   0.38971,   0.00000  )

     Band symmetry, C_2v (mm2)  point group:

     e(  1 -  1) =    -36.38262  eV     1   --> A_1  D_1  S_1  
     e(  2 -  2) =    -11.20004  eV     1   --> A_1  D_1  S_1  
     e(  3 -  3) =    -10.65380  eV     1   --> B_2  D_4  S_4  
     e(  4 -  4) =    -10.40503  eV     1   --> B_1  D_3  S_3  
     e(  5 -  5) =     11.17999  eV     1   --> A_1  D_1  S_1  
     e(  6 -  6) =     15.95889  eV     1   --> A_1  D_1  S_1  
     e(  7 -  7) =     18.51880  eV     1   --> B_2  D_4  S_4  
     e(  8 -  8) =     19.23465  eV     1   --> A_1  D_1  S_1  
     e(  9 -  9) =     20.02922  eV     1   --> B_1  D_3  S_3  
     e( 10 - 10) =     24.81869  eV     1   --> A_2  D_2  S_2  
     e( 11 - 11) =     26.41829  eV     1   --> A_1  D_1  S_1  
     e( 12 - 12) =     26.81642  eV     1   --> B_1  D_3  S_3  
     e( 13 - 13) =     27.90021  eV     1   --> B_2  D_4  S_4  
     e( 14 - 14) =     33.77523  eV     1   --> A_1  D_1  S_1  
     e( 15 - 15) =     33.94567  eV     1   --> B_2  D_4  S_4  
     e( 16 - 16) =     36.70760  eV     1   --> A_1  D_1  S_1  
     e( 17 - 17) =     38.83779  eV     1   --> A_1  D_1  S_1  
     e( 18 - 18) =     39.12896  eV     1   --> B_1  D_3  S_3  
     e( 19 - 19) =     46.22786  eV     1   --> B_1  D_3  S_3  
     e( 20 - 20) =     47.31404  eV     1   --> A_1  D_1  S_1  

 **************************************************************************

 **************************************************************************

                    xk=(   0.00000,   0.40415,   0.00000  )

     Band symmetry, C_2v (mm2)  point group:

     e(  1 -  1) =    -36.37621  eV     1   --> A_1  D_1  S_1  
     e(  2 -  2) =    -11.24170  eV     1   --> A_1  D_1  S_1  
     e(  3 -  3) =    -10.64562  eV     1   --> B_2  D_4  S_4  
     e(  4 -  4) =    -10.41499  eV     1   --> B_1  D_3  S_3  
     e(  5 -  5) =     11.31964  eV     1   --> A_1  D_1  S_1  
     e(  6 -  6) =     15.81307  eV     1   --> A_1  D_1  S_1  
     e(  7 -  7) =     18.43793  eV     1   --> B_2  D_4  S_4  
     e(  8 -  8) =     19.16916  eV     1   --> A_1  D_1  S_1  
     e(  9 -  9) =     20.04034  eV     1   --> B_1  D_3  S_3  
     e( 10 - 10) =     24.78326  eV     1   --> A_2  D_2  S_2  
     e( 11 - 11) =     26.58748  eV     1   --> A_1  D_1  S_1  
     e( 12 - 12) =     26.87378  eV     1   --> B_1  D_3  S_3  
     e( 13 - 13) =     27.82438  eV     1   --> B_2  D_4  S_4  
     e( 14 - 14) =     33.73979  eV     1   --> A_1  D_1  S_1  
     e( 15 - 15) =     34.16904  eV     1   --> B_2  D_4  S_4  
     e( 16 - 16) =     36.57751  eV     1   --> A_1  D_1  S_1  
     e( 17 - 17) =     39.21243  eV     1   --> A_1  D_1  S_1  
     e( 18 - 18) =     39.53244  eV     1   --> B_1  D_3  S_3  
     e( 19 - 19) =     45.84902  eV     1   --> B_1  D_3  S_3  
     e( 20 - 20) =     47.11066  eV     1   --> A_1  D_1  S_1  

 **************************************************************************

 **************************************************************************

                    xk=(   0.00000,   0.41858,   0.00000  )

     Band symmetry, C_2v (mm2)  point group:

     e(  1 -  1) =    -36.37014  eV     1   --> A_1  D_1  S_1  
     e(  2 -  2) =    -11.28087  eV     1   --> A_1  D_1  S_1  
     e(  3 -  3) =    -10.63788  eV     1   --> B_2  D_4  S_4  
     e(  4 -  4) =    -10.42438  eV     1   --> B_1  D_3  S_3  
     e(  5 -  5) =     11.45891  eV     1   --> A_1  D_1  S_1  
     e(  6 -  6) =     15.66970  eV     1   --> A_1  D_1  S_1  
     e(  7 -  7) =     18.36302  eV     1   --> B_2  D_4  S_4  
     e(  8 -  8) =     19.10186  eV     1   --> A_1  D_1  S_1  
     e(  9 -  9) =     20.04895  eV     1   --> B_1  D_3  S_3  
     e( 10 - 10) =     24.75007  eV     1   --> A_2  D_2  S_2  
     e( 11 - 11) =     26.77118  eV     1   --> A_1  D_1  S_1  
     e( 12 - 12) =     26.93531  eV     1   --> B_1  D_3  S_3  
     e( 13 - 13) =     27.74946  eV     1   --> B_2  D_4  S_4  
     e( 14 - 14) =     33.68306  eV     1   --> A_1  D_1  S_1  
     e( 15 - 15) =     34.39372  eV     1   --> B_2  D_4  S_4  
     e( 16 - 16) =     36.44816  eV     1   --> A_1  D_1  S_1  
     e( 17 - 17) =     39.58606  eV     1   --> A_1  D_1  S_1  
     e( 18 - 18) =     39.93264  eV     1   --> B_1  D_3  S_3  
     e( 19 - 19) =     45.49250  eV     1   --> B_1  D_3  S_3  
     e( 20 - 20) =     46.90735  eV     1   --> A_1  D_1  S_1  

 **************************************************************************

 **************************************************************************

                    xk=(   0.00000,   0.43301,   0.00000  )

     Band symmetry, C_2v (mm2)  point group:

     e(  1 -  1) =    -36.36447  eV     1   --> A_1  D_1  S_1  
     e(  2 -  2) =    -11.31734  eV     1   --> A_1  D_1  S_1  
     e(  3 -  3) =    -10.63063  eV     1   --> B_2  D_4  S_4  
     e(  4 -  4) =    -10.43315  eV     1   --> B_1  D_3  S_3  
     e(  5 -  5) =     11.59657  eV     1   --> A_1  D_1  S_1  
     e(  6 -  6) =     15.52927  eV     1   --> A_1  D_1  S_1  
     e(  7 -  7) =     18.29439  eV     1   --> B_2  D_4  S_4  
     e(  8 -  8) =     19.03455  eV     1   --> A_1  D_1  S_1  
     e(  9 -  9) =     20.05485  eV     1   --> B_1  D_3  S_3  
     e( 10 - 10) =     24.71925  eV     1   --> A_2  D_2  S_2  
     e( 11 - 11) =     26.96671  eV     1   --> A_1  D_1  S_1  
     e( 12 - 12) =     26.99922  eV     1   --> B_1  D_3  S_3  
     e( 13 - 13) =     27.67636  eV     1   --> B_2  D_4  S_4  
     e( 14 - 14) =     33.60392  eV     1   --> A_1  D_1  S_1  
     e( 15 - 15) =     34.61732  eV     1   --> B_2  D_4  S_4  
     e( 16 - 16) =     36.32533  eV     1   --> A_1  D_1  S_1  
     e( 17 - 17) =     39.95714  eV     1   --> A_1  D_1  S_1  
     e( 18 - 18) =     40.32746  eV     1   --> B_1  D_3  S_3  
     e( 19 - 19) =     45.15837  eV     1   --> B_1  D_3  S_3  
     e( 20 - 20) =     46.69933  eV     1   --> A_1  D_1  S_1  

 **************************************************************************

 **************************************************************************

                    xk=(   0.00000,   0.44745,   0.00000  )

     Band symmetry, C_2v (mm2)  point group:

     e(  1 -  1) =    -36.35920  eV     1   --> A_1  D_1  S_1  
     e(  2 -  2) =    -11.35092  eV     1   --> A_1  D_1  S_1  
     e(  3 -  3) =    -10.62392  eV     1   --> B_2  D_4  S_4  
     e(  4 -  4) =    -10.44124  eV     1   --> B_1  D_3  S_3  
     e(  5 -  5) =     11.73245  eV     1   --> A_1  D_1  S_1  
     e(  6 -  6) =     15.39317  eV     1   --> A_1  D_1  S_1  
     e(  7 -  7) =     18.23226  eV     1   --> B_2  D_4  S_4  
     e(  8 -  8) =     18.96887  eV     1   --> A_1  D_1  S_1  
     e(  9 -  9) =     20.05954  eV     1   --> B_1  D_3  S_3  
     e( 10 - 10) =     24.69096  eV     1   --> A_2  D_2  S_2  
     e( 11 - 11) =     27.06414  eV     1   --> B_1  D_3  S_3  
     e( 12 - 12) =     27.17097  eV     1   --> A_1  D_1  S_1  
     e( 13 - 13) =     27.60725  eV     1   --> B_2  D_4  S_4  
     e( 14 - 14) =     33.50339  eV     1   --> A_1  D_1  S_1  
     e( 15 - 15) =     34.83721  eV     1   --> B_2  D_4  S_4  
     e( 16 - 16) =     36.21433  eV     1   --> A_1  D_1  S_1  
     e( 17 - 17) =     40.32517  eV     1   --> A_1  D_1  S_1  
     e( 18 - 18) =     40.71507  eV     1   --> B_1  D_3  S_3  
     e( 19 - 19) =     44.85047  eV     1   --> B_1  D_3  S_3  
     e( 20 - 20) =     46.49549  eV     1   --> A_1  D_1  S_1  

 **************************************************************************

 **************************************************************************

                    xk=(   0.00000,   0.46188,   0.00000  )

     Band symmetry, C_2v (mm2)  point group:

     e(  1 -  1) =    -36.35441  eV     1   --> A_1  D_1  S_1  
     e(  2 -  2) =    -11.38145  eV     1   --> A_1  D_1  S_1  
     e(  3 -  3) =    -10.61779  eV     1   --> B_2  D_4  S_4  
     e(  4 -  4) =    -10.44860  eV     1   --> B_1  D_3  S_3  
     e(  5 -  5) =     11.86485  eV     1   --> A_1  D_1  S_1  
     e(  6 -  6) =     15.26081  eV     1   --> A_1  D_1  S_1  
     e(  7 -  7) =     18.17623  eV     1   --> B_2  D_4  S_4  
     e(  8 -  8) =     18.90617  eV     1   --> A_1  D_1  S_1  
     e(  9 -  9) =     20.06255  eV     1   --> B_1  D_3  S_3  
     e( 10 - 10) =     24.66531  eV     1   --> A_2  D_2  S_2  
     e( 11 - 11) =     27.12818  eV     1   --> B_1  D_3  S_3  
     e( 12 - 12) =     27.37972  eV     1   --> A_1  D_1  S_1  
     e( 13 - 13) =     27.54256  eV     1   --> B_2  D_4  S_4  
     e( 14 - 14) =     33.38276  eV     1   --> A_1  D_1  S_1  
     e( 15 - 15) =     35.04644  eV     1   --> B_2  D_4  S_4  
     e( 16 - 16) =     36.11595  eV     1   --> A_1  D_1  S_1  
     e( 17 - 17) =     40.68398  eV     1   --> A_1  D_1  S_1  
     e( 18 - 18) =     41.09101  eV     1   --> B_1  D_3  S_3  
     e( 19 - 19) =     44.56860  eV     1   --> B_1  D_3  S_3  
     e( 20 - 20) =     46.28828  eV     1   --> A_1  D_1  S_1  

 **************************************************************************

 **************************************************************************

                    xk=(   0.00000,   0.47631,   0.00000  )

     Band symmetry, C_2v (mm2)  point group:

     e(  1 -  1) =    -36.35010  eV     1   --> A_1  D_1  S_1  
     e(  2 -  2) =    -11.40876  eV     1   --> A_1  D_1  S_1  
     e(  3 -  3) =    -10.61229  eV     1   --> B_2  D_4  S_4  
     e(  4 -  4) =    -10.45521  eV     1   --> B_1  D_3  S_3  
     e(  5 -  5) =     11.99229  eV     1   --> A_1  D_1  S_1  
     e(  6 -  6) =     15.13419  eV     1   --> A_1  D_1  S_1  
     e(  7 -  7) =     18.12662  eV     1   --> B_2  D_4  S_4  
     e(  8 -  8) =     18.84782  eV     1   --> A_1  D_1  S_1  
     e(  9 -  9) =     20.06436  eV     1   --> B_1  D_3  S_3  
     e( 10 - 10) =     24.64242  eV     1   --> A_2  D_2  S_2  
     e( 11 - 11) =     27.18965  eV     1   --> B_1  D_3  S_3  
     e( 12 - 12) =     27.48356  eV     1   --> B_2  D_4  S_4  
     e( 13 - 13) =     27.58901  eV     1   --> A_1  D_1  S_1  
     e( 14 - 14) =     33.24612  eV     1   --> A_1  D_1  S_1  
     e( 15 - 15) =     35.24300  eV     1   --> B_2  D_4  S_4  
     e( 16 - 16) =     36.03234  eV     1   --> A_1  D_1  S_1  
     e( 17 - 17) =     41.03142  eV     1   --> A_1  D_1  S_1  
     e( 18 - 18) =     41.45203  eV     1   --> B_1  D_3  S_3  
     e( 19 - 19) =     44.31387  eV     1   --> B_1  D_3  S_3  
     e( 20 - 20) =     46.08044  eV     1   --> A_1  D_1  S_1  

 **************************************************************************

 **************************************************************************

                    xk=(   0.00000,   0.49075,   0.00000  )

     Band symmetry, C_2v (mm2)  point group:

     e(  1 -  1) =    -36.34630  eV     1   --> A_1  D_1  S_1  
     e(  2 -  2) =    -11.43272  eV     1   --> A_1  D_1  S_1  
     e(  3 -  3) =    -10.60745  eV     1   --> B_2  D_4  S_4  
     e(  4 -  4) =    -10.46101  eV     1   --> B_1  D_3  S_3  
     e(  5 -  5) =     12.11286  eV     1   --> A_1  D_1  S_1  
     e(  6 -  6) =     15.01493  eV     1   --> A_1  D_1  S_1  
     e(  7 -  7) =     18.08350  eV     1   --> B_2  D_4  S_4  
     e(  8 -  8) =     18.79497  eV     1   --> A_1  D_1  S_1  
     e(  9 -  9) =     20.06527  eV     1   --> B_1  D_3  S_3  
     e( 10 - 10) =     24.62238  eV     1   --> A_2  D_2  S_2  
     e( 11 - 11) =     27.24689  eV     1   --> B_1  D_3  S_3  
     e( 12 - 12) =     27.43104  eV     1   --> B_2  D_4  S_4  
     e( 13 - 13) =     27.79389  eV     1   --> A_1  D_1  S_1  
     e( 14 - 14) =     33.09912  eV     1   --> A_1  D_1  S_1  
     e( 15 - 15) =     35.42328  eV     1   --> B_2  D_4  S_4  
     e( 16 - 16) =     35.96351  eV     1   --> A_1  D_1  S_1  
     e( 17 - 17) =     41.36386  eV     1   --> A_1  D_1  S_1  
     e( 18 - 18) =     41.79342  eV     1   --> B_1  D_3  S_3  
     e( 19 - 19) =     44.08705  eV     1   --> B_1  D_3  S_3  
     e( 20 - 20) =     45.87350  eV     1   --> A_1  D_1  S_1  

 **************************************************************************

 **************************************************************************

                    xk=(   0.00000,   0.50518,   0.00000  )

     Band symmetry, C_2v (mm2)  point group:

     e(  1 -  1) =    -36.34305  eV     1   --> A_1  D_1  S_1  
     e(  2 -  2) =    -11.45319  eV     1   --> A_1  D_1  S_1  
     e(  3 -  3) =    -10.60329  eV     1   --> B_2  D_4  S_4  
     e(  4 -  4) =    -10.46597  eV     1   --> B_1  D_3  S_3  
     e(  5 -  5) =     12.22415  eV     1   --> A_1  D_1  S_1  
     e(  6 -  6) =     14.90520  eV     1   --> A_1  D_1  S_1  
     e(  7 -  7) =     18.04691  eV     1   --> B_2  D_4  S_4  
     e(  8 -  8) =     18.74861  eV     1   --> A_1  D_1  S_1  
     e(  9 -  9) =     20.06554  eV     1   --> B_1  D_3  S_3  
     e( 10 - 10) =     24.60529  eV     1   --> A_2  D_2  S_2  
     e( 11 - 11) =     27.29835  eV     1   --> B_1  D_3  S_3  
     e( 12 - 12) =     27.38564  eV     1   --> B_2  D_4  S_4  
     e( 13 - 13) =     27.98846  eV     1   --> A_1  D_1  S_1  
     e( 14 - 14) =     32.94914  eV     1   --> A_1  D_1  S_1  
     e( 15 - 15) =     35.58367  eV     1   --> B_2  D_4  S_4  
     e( 16 - 16) =     35.90860  eV     1   --> A_1  D_1  S_1  
     e( 17 - 17) =     41.67648  eV     1   --> A_1  D_1  S_1  
     e( 18 - 18) =     42.10964  eV     1   --> B_1  D_3  S_3  
     e( 19 - 19) =     43.88840  eV     1   --> B_1  D_3  S_3  
     e( 20 - 20) =     45.67036  eV     1   --> A_1  D_1  S_1  

 **************************************************************************

 **************************************************************************

                    xk=(   0.00000,   0.51962,   0.00000  )

     Band symmetry, C_2v (mm2)  point group:

     e(  1 -  1) =    -36.34036  eV     1   --> A_1  D_1  S_1  
     e(  2 -  2) =    -11.47009  eV     1   --> A_1  D_1  S_1  
     e(  3 -  3) =    -10.59986  eV     1   --> B_2  D_4  S_4  
     e(  4 -  4) =    -10.47007  eV     1   --> B_1  D_3  S_3  
     e(  5 -  5) =     12.32245  eV     1   --> A_1  D_1  S_1  
     e(  6 -  6) =     14.80749  eV     1   --> A_1  D_1  S_1  
     e(  7 -  7) =     18.01691  eV     1   --> B_2  D_4  S_4  
     e(  8 -  8) =     18.70955  eV     1   --> A_1  D_1  S_1  
     e(  9 -  9) =     20.06517  eV     1   --> B_1  D_3  S_3  
     e( 10 - 10) =     24.59121  eV     1   --> A_2  D_2  S_2  
     e( 11 - 11) =     27.34240  eV     1   --> B_1  D_3  S_3  
     e( 12 - 12) =     27.34787  eV     1   --> B_2  D_4  S_4  
     e( 13 - 13) =     28.16545  eV     1   --> A_1  D_1  S_1  
     e( 14 - 14) =     32.80496  eV     1   --> A_1  D_1  S_1  
     e( 15 - 15) =     35.72062  eV     1   --> B_2  D_4  S_4  
     e( 16 - 16) =     35.86629  eV     1   --> A_1  D_1  S_1  
     e( 17 - 17) =     41.96219  eV     1   --> A_1  D_1  S_1  
     e( 18 - 18) =     42.39015  eV     1   --> B_1  D_3  S_3  
     e( 19 - 19) =     43.71739  eV     1   --> B_1  D_3  S_3  
     e( 20 - 20) =     45.47556  eV     1   --> A_1  D_1  S_1  

 **************************************************************************

 **************************************************************************

                    xk=(   0.00000,   0.53405,   0.00000  )

     Band symmetry, C_2v (mm2)  point group:

     e(  1 -  1) =    -36.33825  eV     1   --> A_1  D_1  S_1  
     e(  2 -  2) =    -11.48332  eV     1   --> A_1  D_1  S_1  
     e(  3 -  3) =    -10.59716  eV     1   --> B_2  D_4  S_4  
     e(  4 -  4) =    -10.47328  eV     1   --> B_1  D_3  S_3  
     e(  5 -  5) =     12.40568  eV     1   --> A_1  D_1  S_1  
     e(  6 -  6) =     14.72566  eV     1   --> A_1  D_1  S_1  
     e(  7 -  7) =     17.99354  eV     1   --> B_2  D_4  S_4  
     e(  8 -  8) =     18.67849  eV     1   --> A_1  D_1  S_1  
     e(  9 -  9) =     20.06486  eV     1   --> B_1  D_3  S_3  
     e( 10 - 10) =     24.58019  eV     1   --> A_2  D_2  S_2  
     e( 11 - 11) =     27.31811  eV     1   --> B_2  D_4  S_4  
     e( 12 - 12) =     27.37821  eV     1   --> B_1  D_3  S_3  
     e( 13 - 13) =     28.31720  eV     1   --> A_1  D_1  S_1  
     e( 14 - 14) =     32.67675  eV     1   --> A_1  D_1  S_1  
     e( 15 - 15) =     35.83107  eV     1   --> B_2  D_4  S_4  
     e( 16 - 16) =     35.83517  eV     1   --> A_1  D_1  S_1  
     e( 17 - 17) =     42.21193  eV     1   --> A_1  D_1  S_1  
     e( 18 - 18) =     42.63688  eV     1   --> B_1  D_3  S_3  
     e( 19 - 19) =     43.57228  eV     1   --> B_1  D_3  S_3  
     e( 20 - 20) =     45.29874  eV     1   --> A_1  D_1  S_1  

 **************************************************************************

 **************************************************************************

                    xk=(   0.00000,   0.54848,   0.00000  )

     Band symmetry, C_2v (mm2)  point group:

     e(  1 -  1) =    -36.33673  eV     1   --> A_1  D_1  S_1  
     e(  2 -  2) =    -11.49281  eV     1   --> A_1  D_1  S_1  
     e(  3 -  3) =    -10.59522  eV     1   --> B_2  D_4  S_4  
     e(  4 -  4) =    -10.47559  eV     1   --> B_1  D_3  S_3  
     e(  5 -  5) =     12.46919  eV     1   --> A_1  D_1  S_1  
     e(  6 -  6) =     14.66328  eV     1   --> A_1  D_1  S_1  
     e(  7 -  7) =     17.97683  eV     1   --> B_2  D_4  S_4  
     e(  8 -  8) =     18.65595  eV     1   --> A_1  D_1  S_1  
     e(  9 -  9) =     20.06452  eV     1   --> B_1  D_3  S_3  
     e( 10 - 10) =     24.57229  eV     1   --> A_2  D_2  S_2  
     e( 11 - 11) =     27.29666  eV     1   --> B_2  D_4  S_4  
     e( 12 - 12) =     27.40456  eV     1   --> B_1  D_3  S_3  
     e( 13 - 13) =     28.43467  eV     1   --> A_1  D_1  S_1  
     e( 14 - 14) =     32.57486  eV     1   --> A_1  D_1  S_1  
     e( 15 - 15) =     35.81394  eV     1   --> A_1  D_1  S_1  
     e( 16 - 16) =     35.91217  eV     1   --> B_2  D_4  S_4  
     e( 17 - 17) =     42.41151  eV     1   --> A_1  D_1  S_1  
     e( 18 - 18) =     42.84032  eV     1   --> B_1  D_3  S_3  
     e( 19 - 19) =     43.45004  eV     1   --> B_1  D_3  S_3  
     e( 20 - 20) =     45.15198  eV     1   --> A_1  D_1  S_1  

 **************************************************************************

 **************************************************************************

                    xk=(   0.00000,   0.56292,   0.00000  )

     Band symmetry, C_2v (mm2)  point group:

     e(  1 -  1) =    -36.33582  eV     1   --> A_1  D_1  S_1  
     e(  2 -  2) =    -11.49852  eV     1   --> A_1  D_1  S_1  
     e(  3 -  3) =    -10.59405  eV     1   --> B_2  D_4  S_4  
     e(  4 -  4) =    -10.47698  eV     1   --> B_1  D_3  S_3  
     e(  5 -  5) =     12.50931  eV     1   --> A_1  D_1  S_1  
     e(  6 -  6) =     14.62456  eV     1   --> A_1  D_1  S_1  
     e(  7 -  7) =     17.96688  eV     1   --> B_2  D_4  S_4  
     e(  8 -  8) =     18.64231  eV     1   --> A_1  D_1  S_1  
     e(  9 -  9) =     20.06431  eV     1   --> B_1  D_3  S_3  
     e( 10 - 10) =     24.56754  eV     1   --> A_2  D_2  S_2  
     e( 11 - 11) =     27.28375  eV     1   --> B_2  D_4  S_4  
     e( 12 - 12) =     27.42068  eV     1   --> B_1  D_3  S_3  
     e( 13 - 13) =     28.50984  eV     1   --> A_1  D_1  S_1  
     e( 14 - 14) =     32.50937  eV     1   --> A_1  D_1  S_1  
     e( 15 - 15) =     35.80184  eV     1   --> A_1  D_1  S_1  
     e( 16 - 16) =     35.96211  eV     1   --> B_2  D_4  S_4  
     e( 17 - 17) =     42.54549  eV     1   --> A_1  D_1  S_1  
     e( 18 - 18) =     42.99364  eV     1   --> B_1  D_3  S_3  
     e( 19 - 19) =     43.34985  eV     1   --> B_1  D_3  S_3  
     e( 20 - 20) =     45.05238  eV     1   --> A_1  D_1  S_1  

 **************************************************************************

 **************************************************************************

                    xk=(   0.00000,   0.57735,   0.00000  )

     point group D_2h (mmm) 
     there are  8 classes
     the character table:

       E     C2    C2'   C2''  i     s_v   s_v'  s_v''
A_g    1.00  1.00  1.00  1.00  1.00  1.00  1.00  1.00
B_1g   1.00  1.00 -1.00 -1.00  1.00  1.00 -1.00 -1.00
B_2g   1.00 -1.00  1.00 -1.00  1.00 -1.00  1.00 -1.00
B_3g   1.00 -1.00 -1.00  1.00  1.00 -1.00 -1.00  1.00
A_u    1.00  1.00  1.00  1.00 -1.00 -1.00 -1.00 -1.00
B_1u   1.00  1.00 -1.00 -1.00 -1.00 -1.00  1.00  1.00
B_2u   1.00 -1.00  1.00 -1.00 -1.00  1.00 -1.00  1.00
B_3u   1.00 -1.00 -1.00  1.00 -1.00  1.00  1.00 -1.00

     the symmetry operations in each class and the name of the first element:

     E        1
                                                                 
     C2       2
                                                                 
     C2'      4
                                                                 
     C2''     3
                                                                 
     i        5
                                                                 
     s_v      6
                                                                 
     s_v'     8
                                                                 
     s_v''    7
                                                                 

     Band symmetry, D_2h (mmm)  point group:

     e(  1 -  1) =    -36.33551  eV     1   --> A_g            
     e(  2 -  2) =    -11.50043  eV     1   --> B_3u           
     e(  3 -  3) =    -10.59366  eV     1   --> B_1u           
     e(  4 -  4) =    -10.47745  eV     1   --> B_2u           
     e(  5 -  5) =     12.52301  eV     1   --> A_g            
     e(  6 -  6) =     14.61110  eV     1   --> B_3u           
     e(  7 -  7) =     17.96354  eV     1   --> B_2g           
     e(  8 -  8) =     18.63773  eV     1   --> A_g            
     e(  9 -  9) =     20.06421  eV     1   --> B_2u           
     e( 10 - 10) =     24.56596  eV     1   --> B_3g           
     e( 11 - 11) =     27.27942  eV     1   --> B_1u           
     e( 12 - 12) =     27.42610  eV     1   --> B_1g           
     e( 13 - 13) =     28.53551  eV     1   --> A_g            
     e( 14 - 14) =     32.48656  eV     1   --> B_3u           
     e( 15 - 15) =     35.79778  eV     1   --> A_g            
     e( 16 - 16) =     35.97880  eV     1   --> B_2g           
     e( 17 - 17) =     42.59191  eV     1   --> A_g            
     e( 18 - 18) =     43.06297  eV     1   --> B_1g           
     e( 19 - 19) =     43.29882  eV     1   --> B_2u           
     e( 20 - 20) =     45.01670  eV     1   --> B_3u           

 **************************************************************************

 **************************************************************************

                    xk=(   0.01667,   0.57735,   0.00000  )

     point group C_2v (mm2) 
     there are  4 classes
     the character table:

       E     C2    s_v   s_v' 
A_1    1.00  1.00  1.00  1.00
A_2    1.00  1.00 -1.00 -1.00
B_1    1.00 -1.00  1.00 -1.00
B_2    1.00 -1.00 -1.00  1.00

     the symmetry operations in each class and the name of the first element:

     E        1
                                                                 
     C2       2
                                                                 
     s_v      4
                                                                 
     s_v'     3
                                                                 

     Band symmetry, C_2v (mm2)  point group:

     e(  1 -  1) =    -36.33537  eV     1   --> A_1  D_1  S_1  
     e(  2 -  2) =    -11.49932  eV     1   --> B_2  D_4  S_4  
     e(  3 -  3) =    -10.59349  eV     1   --> B_1  D_3  S_3  
     e(  4 -  4) =    -10.47994  eV     1   --> A_1  D_1  S_1  
     e(  5 -  5) =     12.52961  eV     1   --> A_1  D_1  S_1  
     e(  6 -  6) =     14.61199  eV     1   --> B_2  D_4  S_4  
     e(  7 -  7) =     17.96805  eV     1   --> A_2  D_2  S_2  
     e(  8 -  8) =     18.60810  eV     1   --> A_1  D_1  S_1  
     e(  9 -  9) =     20.09465  eV     1   --> A_1  D_1  S_1  
     e( 10 - 10) =     24.50835  eV     1   --> B_1  D_3  S_3  
     e( 11 - 11) =     27.34541  eV     1   --> B_1  D_3  S_3  
     e( 12 - 12) =     27.40432  eV     1   --> B_2  D_4  S_4  
     e( 13 - 13) =     28.52498  eV     1   --> A_1  D_1  S_1  
     e( 14 - 14) =     32.51687  eV     1   --> B_2  D_4  S_4  
     e( 15 - 15) =     35.81366  eV     1   --> A_1  D_1  S_1  
     e( 16 - 16) =     35.97276  eV     1   --> A_2  D_2  S_2  
     e( 17 - 17) =     42.53519  eV     1   --> A_1  D_1  S_1  
     e( 18 - 18) =     43.05576  eV     1   --> B_2  D_4  S_4  
     e( 19 - 19) =     43.35177  eV     1   --> A_1  D_1  S_1  
     e( 20 - 20) =     45.02456  eV     1   --> B_2  D_4  S_4  

 **************************************************************************

 **************************************************************************

                    xk=(   0.03333,   0.57735,   0.00000  )

     Band symmetry, C_2v (mm2)  point group:

     e(  1 -  1) =    -36.33498  eV     1   --> A_1  D_1  S_1  
     e(  2 -  2) =    -11.49598  eV     1   --> B_2  D_4  S_4  
     e(  3 -  3) =    -10.59299  eV     1   --> B_1  D_3  S_3  
     e(  4 -  4) =    -10.48738  eV     1   --> A_1  D_1  S_1  
     e(  5 -  5) =     12.54925  eV     1   --> A_1  D_1  S_1  
     e(  6 -  6) =     14.61467  eV     1   --> B_2  D_4  S_4  
     e(  7 -  7) =     17.98160  eV     1   --> A_2  D_2  S_2  
     e(  8 -  8) =     18.52531  eV     1   --> A_1  D_1  S_1  
     e(  9 -  9) =     20.17917  eV     1   --> A_1  D_1  S_1  
     e( 10 - 10) =     24.35016  eV     1   --> B_1  D_3  S_3  
     e( 11 - 11) =     27.34065  eV     1   --> B_2  D_4  S_4  
     e( 12 - 12) =     27.52860  eV     1   --> B_1  D_3  S_3  
     e( 13 - 13) =     28.49347  eV     1   --> A_1  D_1  S_1  
     e( 14 - 14) =     32.60608  eV     1   --> B_2  D_4  S_4  
     e( 15 - 15) =     35.86055  eV     1   --> A_1  D_1  S_1  
     e( 16 - 16) =     35.95470  eV     1   --> A_2  D_2  S_2  
     e( 17 - 17) =     42.39896  eV     1   --> A_1  D_1  S_1  
     e( 18 - 18) =     43.03444  eV     1   --> B_2  D_4  S_4  
     e( 19 - 19) =     43.47590  eV     1   --> A_1  D_1  S_1  
     e( 20 - 20) =     45.04777  eV     1   --> B_2  D_4  S_4  

 **************************************************************************

 **************************************************************************

                    xk=(   0.05000,   0.57735,   0.00000  )

     Band symmetry, C_2v (mm2)  point group:

     e(  1 -  1) =    -36.33431  eV     1   --> A_1  D_1  S_1  
     e(  2 -  2) =    -11.49044  eV     1   --> B_2  D_4  S_4  
     e(  3 -  3) =    -10.59216  eV     1   --> B_1  D_3  S_3  
     e(  4 -  4) =    -10.49966  eV     1   --> A_1  D_1  S_1  
     e(  5 -  5) =     12.58235  eV     1   --> A_1  D_1  S_1  
     e(  6 -  6) =     14.61962  eV     1   --> B_2  D_4  S_4  
     e(  7 -  7) =     18.00418  eV     1   --> A_2  D_2  S_2  
     e(  8 -  8) =     18.40248  eV     1   --> A_1  D_1  S_1  
     e(  9 -  9) =     20.30685  eV     1   --> A_1  D_1  S_1  
     e( 10 - 10) =     24.12218  eV     1   --> B_1  D_3  S_3  
     e( 11 - 11) =     27.23972  eV     1   --> B_2  D_4  S_4  
     e( 12 - 12) =     27.79822  eV     1   --> B_1  D_3  S_3  
     e( 13 - 13) =     28.44164  eV     1   --> A_1  D_1  S_1  
     e( 14 - 14) =     32.74959  eV     1   --> B_2  D_4  S_4  
     e( 15 - 15) =     35.92484  eV     1   --> A_2  D_2  S_2  
     e( 16 - 16) =     35.93928  eV     1   --> A_1  D_1  S_1  
     e( 17 - 17) =     42.22805  eV     1   --> A_1  D_1  S_1  
     e( 18 - 18) =     43.00505  eV     1   --> B_2  D_4  S_4  
     e( 19 - 19) =     43.62619  eV     1   --> A_1  D_1  S_1  
     e( 20 - 20) =     45.08591  eV     1   --> B_2  D_4  S_4  

 **************************************************************************

 **************************************************************************

                    xk=(   0.06667,   0.57735,   0.00000  )

     Band symmetry, C_2v (mm2)  point group:

     e(  1 -  1) =    -36.33340  eV     1   --> A_1  D_1  S_1  
     e(  2 -  2) =    -11.48270  eV     1   --> B_2  D_4  S_4  
     e(  3 -  3) =    -10.59102  eV     1   --> B_1  D_3  S_3  
     e(  4 -  4) =    -10.51662  eV     1   --> A_1  D_1  S_1  
     e(  5 -  5) =     12.62786  eV     1   --> A_1  D_1  S_1  
     e(  6 -  6) =     14.62584  eV     1   --> B_2  D_4  S_4  
     e(  7 -  7) =     18.03575  eV     1   --> A_2  D_2  S_2  
     e(  8 -  8) =     18.25207  eV     1   --> A_1  D_1  S_1  
     e(  9 -  9) =     20.46474  eV     1   --> A_1  D_1  S_1  
     e( 10 - 10) =     23.85249  eV     1   --> B_1  D_3  S_3  
     e( 11 - 11) =     27.10766  eV     1   --> B_2  D_4  S_4  
     e( 12 - 12) =     28.12577  eV     1   --> B_1  D_3  S_3  
     e( 13 - 13) =     28.36934  eV     1   --> A_1  D_1  S_1  
     e( 14 - 14) =     32.94093  eV     1   --> B_2  D_4  S_4  
     e( 15 - 15) =     35.88319  eV     1   --> A_2  D_2  S_2  
     e( 16 - 16) =     36.04877  eV     1   --> A_1  D_1  S_1  
     e( 17 - 17) =     42.04199  eV     1   --> A_1  D_1  S_1  
     e( 18 - 18) =     42.95834  eV     1   --> B_2  D_4  S_4  
     e( 19 - 19) =     43.77885  eV     1   --> A_1  D_1  S_1  
     e( 20 - 20) =     45.13656  eV     1   --> B_2  D_4  S_4  

 **************************************************************************

 **************************************************************************

                    xk=(   0.08333,   0.57735,   0.00000  )

     Band symmetry, C_2v (mm2)  point group:

     e(  1 -  1) =    -36.33227  eV     1   --> A_1  D_1  S_1  
     e(  2 -  2) =    -11.47282  eV     1   --> B_2  D_4  S_4  
     e(  3 -  3) =    -10.58960  eV     1   --> B_1  D_3  S_3  
     e(  4 -  4) =    -10.53802  eV     1   --> A_1  D_1  S_1  
     e(  5 -  5) =     12.68576  eV     1   --> A_1  D_1  S_1  
     e(  6 -  6) =     14.63363  eV     1   --> B_2  D_4  S_4  
     e(  7 -  7) =     18.07631  eV     1   --> A_2  D_2  S_2  
     e(  8 -  8) =     18.08259  eV     1   --> A_1  D_1  S_1  
     e(  9 -  9) =     20.64390  eV     1   --> A_1  D_1  S_1  
     e( 10 - 10) =     23.56033  eV     1   --> B_1  D_3  S_3  
     e( 11 - 11) =     26.95133  eV     1   --> B_2  D_4  S_4  
     e( 12 - 12) =     28.27753  eV     1   --> A_1  D_1  S_1  
     e( 13 - 13) =     28.49159  eV     1   --> B_1  D_3  S_3  
     e( 14 - 14) =     33.17294  eV     1   --> B_2  D_4  S_4  
     e( 15 - 15) =     35.83017  eV     1   --> A_2  D_2  S_2  
     e( 16 - 16) =     36.18792  eV     1   --> A_1  D_1  S_1  
     e( 17 - 17) =     41.84999  eV     1   --> A_1  D_1  S_1  
     e( 18 - 18) =     42.89873  eV     1   --> B_2  D_4  S_4  
     e( 19 - 19) =     43.92150  eV     1   --> A_1  D_1  S_1  
     e( 20 - 20) =     45.19783  eV     1   --> B_2  D_4  S_4  

 **************************************************************************

 **************************************************************************

                    xk=(   0.10000,   0.57735,   0.00000  )

     Band symmetry, C_2v (mm2)  point group:

     e(  1 -  1) =    -36.33093  eV     1   --> A_1  D_1  S_1  
     e(  2 -  2) =    -11.46081  eV     1   --> B_2  D_4  S_4  
     e(  3 -  3) =    -10.58791  eV     1   --> B_1  D_3  S_3  
     e(  4 -  4) =    -10.56358  eV     1   --> A_1  D_1  S_1  
     e(  5 -  5) =     12.75582  eV     1   --> A_1  D_1  S_1  
     e(  6 -  6) =     14.64348  eV     1   --> B_2  D_4  S_4  
     e(  7 -  7) =     17.89959  eV     1   --> A_1  D_1  S_1  
     e(  8 -  8) =     18.12583  eV     1   --> A_2  D_2  S_2  
     e(  9 -  9) =     20.84033  eV     1   --> A_1  D_1  S_1  
     e( 10 - 10) =     23.25768  eV     1   --> B_1  D_3  S_3  
     e( 11 - 11) =     26.77745  eV     1   --> B_2  D_4  S_4  
     e( 12 - 12) =     28.16722  eV     1   --> A_1  D_1  S_1  
     e( 13 - 13) =     28.88307  eV     1   --> B_1  D_3  S_3  
     e( 14 - 14) =     33.43905  eV     1   --> B_2  D_4  S_4  
     e( 15 - 15) =     35.76614  eV     1   --> A_2  D_2  S_2  
     e( 16 - 16) =     36.35637  eV     1   --> A_1  D_1  S_1  
     e( 17 - 17) =     41.65621  eV     1   --> A_1  D_1  S_1  
     e( 18 - 18) =     42.83314  eV     1   --> B_2  D_4  S_4  
     e( 19 - 19) =     44.04658  eV     1   --> A_1  D_1  S_1  
     e( 20 - 20) =     45.26868  eV     1   --> B_2  D_4  S_4  

 **************************************************************************

 **************************************************************************

                    xk=(   0.11667,   0.57735,   0.00000  )

     Band symmetry, C_2v (mm2)  point group:

     e(  1 -  1) =    -36.32941  eV     1   --> A_1  D_1  S_1  
     e(  2 -  2) =    -11.44672  eV     1   --> B_2  D_4  S_4  
     e(  3 -  3) =    -10.59293  eV     1   --> A_1  D_1  S_1  
     e(  4 -  4) =    -10.58600  eV     1   --> B_1  D_3  S_3  
     e(  5 -  5) =     12.83753  eV     1   --> A_1  D_1  S_1  
     e(  6 -  6) =     14.65521  eV     1   --> B_2  D_4  S_4  
     e(  7 -  7) =     17.70649  eV     1   --> A_1  D_1  S_1  
     e(  8 -  8) =     18.18426  eV     1   --> A_2  D_2  S_2  
     e(  9 -  9) =     21.05119  eV     1   --> A_1  D_1  S_1  
     e( 10 - 10) =     22.95197  eV     1   --> B_1  D_3  S_3  
[...]
     e(  9 -  9) =     21.17332  eV     1   --> B_1  D_3  S_3  
     e( 10 - 10) =     23.47280  eV     1   --> A_1  D_1  S_1  
     e( 11 - 11) =     25.52532  eV     1   --> A_2  D_2  S_2  
     e( 12 - 12) =     25.54143  eV     1   --> A_1  D_1  S_1  
     e( 13 - 13) =     25.97427  eV     1   --> B_2  D_4  S_4  
     e( 14 - 14) =     32.26524  eV     1   --> B_1  D_3  S_3  
     e( 15 - 15) =     36.64332  eV     1   --> B_2  D_4  S_4  
     e( 16 - 16) =     37.20936  eV     1   --> A_2  D_2  S_2  
     e( 17 - 17) =     39.39456  eV     1   --> A_2  D_2  S_2  
     e( 18 - 18) =     40.49413  eV     1   --> B_2  D_4  S_4  
     e( 19 - 19) =     43.26202  eV     1   --> A_1  D_1  S_1  
     e( 20 - 20) =     46.40263  eV     1   --> A_1  D_1  S_1  

 **************************************************************************

 **************************************************************************

                    xk=(   0.08333,   0.14434,   0.46831  )

     Band symmetry, C_2v (mm2)  point group:

     e(  1 -  1) =    -36.44066  eV     1   --> A_1  D_1  S_1  
     e(  2 -  2) =    -11.45398  eV     1   --> B_2  D_4  S_4  
     e(  3 -  3) =    -10.36559  eV     1   --> A_1  D_1  S_1  
     e(  4 -  4) =    -10.17039  eV     1   --> B_1  D_3  S_3  
     e(  5 -  5) =     12.16706  eV     1   --> B_2  D_4  S_4  
     e(  6 -  6) =     15.46034  eV     1   --> A_1  D_1  S_1  
     e(  7 -  7) =     19.46697  eV     1   --> A_2  D_2  S_2  
     e(  8 -  8) =     19.84286  eV     1   --> B_2  D_4  S_4  
     e(  9 -  9) =     21.35867  eV     1   --> B_1  D_3  S_3  
     e( 10 - 10) =     23.32060  eV     1   --> A_1  D_1  S_1  
     e( 11 - 11) =     25.26473  eV     1   --> A_2  D_2  S_2  
     e( 12 - 12) =     25.48070  eV     1   --> A_1  D_1  S_1  
     e( 13 - 13) =     25.64422  eV     1   --> B_2  D_4  S_4  
     e( 14 - 14) =     31.96610  eV     1   --> B_1  D_3  S_3  
     e( 15 - 15) =     36.76850  eV     1   --> B_2  D_4  S_4  
     e( 16 - 16) =     37.19998  eV     1   --> A_2  D_2  S_2  
     e( 17 - 17) =     39.26095  eV     1   --> A_2  D_2  S_2  
     e( 18 - 18) =     40.23462  eV     1   --> B_2  D_4  S_4  
     e( 19 - 19) =     43.56491  eV     1   --> A_1  D_1  S_1  
     e( 20 - 20) =     46.79834  eV     1   --> A_1  D_1  S_1  

 **************************************************************************

 **************************************************************************

                    xk=(   0.07500,   0.12990,   0.46831  )

     Band symmetry, C_2v (mm2)  point group:

     e(  1 -  1) =    -36.44720  eV     1   --> A_1  D_1  S_1  
     e(  2 -  2) =    -11.46480  eV     1   --> B_2  D_4  S_4  
     e(  3 -  3) =    -10.32094  eV     1   --> A_1  D_1  S_1  
     e(  4 -  4) =    -10.15866  eV     1   --> B_1  D_3  S_3  
     e(  5 -  5) =     12.18435  eV     1   --> B_2  D_4  S_4  
     e(  6 -  6) =     15.31661  eV     1   --> A_1  D_1  S_1  
     e(  7 -  7) =     19.75329  eV     1   --> A_2  D_2  S_2  
     e(  8 -  8) =     20.05257  eV     1   --> B_2  D_4  S_4  
     e(  9 -  9) =     21.54280  eV     1   --> B_1  D_3  S_3  
     e( 10 - 10) =     23.18222  eV     1   --> A_1  D_1  S_1  
     e( 11 - 11) =     25.00036  eV     1   --> A_2  D_2  S_2  
     e( 12 - 12) =     25.31515  eV     1   --> B_2  D_4  S_4  
     e( 13 - 13) =     25.42531  eV     1   --> A_1  D_1  S_1  
     e( 14 - 14) =     31.67211  eV     1   --> B_1  D_3  S_3  
     e( 15 - 15) =     36.88640  eV     1   --> B_2  D_4  S_4  
     e( 16 - 16) =     37.17399  eV     1   --> A_2  D_2  S_2  
     e( 17 - 17) =     39.15668  eV     1   --> A_2  D_2  S_2  
     e( 18 - 18) =     39.99670  eV     1   --> B_2  D_4  S_4  
     e( 19 - 19) =     43.83904  eV     1   --> A_1  D_1  S_1  
     e( 20 - 20) =     47.17467  eV     1   --> B_1  D_3  S_3  

 **************************************************************************

 **************************************************************************

                    xk=(   0.06667,   0.11547,   0.46831  )

     Band symmetry, C_2v (mm2)  point group:

     e(  1 -  1) =    -36.45321  eV     1   --> A_1  D_1  S_1  
     e(  2 -  2) =    -11.47471  eV     1   --> B_2  D_4  S_4  
     e(  3 -  3) =    -10.27944  eV     1   --> A_1  D_1  S_1  
     e(  4 -  4) =    -10.14819  eV     1   --> B_1  D_3  S_3  
     e(  5 -  5) =     12.20040  eV     1   --> B_2  D_4  S_4  
     e(  6 -  6) =     15.18525  eV     1   --> A_1  D_1  S_1  
     e(  7 -  7) =     20.04095  eV     1   --> A_2  D_2  S_2  
     e(  8 -  8) =     20.27258  eV     1   --> B_2  D_4  S_4  
     e(  9 -  9) =     21.72289  eV     1   --> B_1  D_3  S_3  
     e( 10 - 10) =     23.05793  eV     1   --> A_1  D_1  S_1  
     e( 11 - 11) =     24.73214  eV     1   --> A_2  D_2  S_2  
     e( 12 - 12) =     24.98742  eV     1   --> B_2  D_4  S_4  
     e( 13 - 13) =     25.37542  eV     1   --> A_1  D_1  S_1  
     e( 14 - 14) =     31.38694  eV     1   --> B_1  D_3  S_3  
     e( 15 - 15) =     36.99578  eV     1   --> B_2  D_4  S_4  
     e( 16 - 16) =     37.13315  eV     1   --> A_2  D_2  S_2  
     e( 17 - 17) =     39.07972  eV     1   --> A_2  D_2  S_2  
     e( 18 - 18) =     39.78231  eV     1   --> B_2  D_4  S_4  
     e( 19 - 19) =     44.08477  eV     1   --> A_1  D_1  S_1  
     e( 20 - 20) =     47.54712  eV     1   --> B_1  D_3  S_3  

 **************************************************************************

 **************************************************************************

                    xk=(   0.05833,   0.10104,   0.46831  )

     Band symmetry, C_2v (mm2)  point group:

     e(  1 -  1) =    -36.45862  eV     1   --> A_1  D_1  S_1  
     e(  2 -  2) =    -11.48364  eV     1   --> B_2  D_4  S_4  
     e(  3 -  3) =    -10.24156  eV     1   --> A_1  D_1  S_1  
     e(  4 -  4) =    -10.13899  eV     1   --> B_1  D_3  S_3  
     e(  5 -  5) =     12.21468  eV     1   --> B_2  D_4  S_4  
     e(  6 -  6) =     15.06710  eV     1   --> A_1  D_1  S_1  
     e(  7 -  7) =     20.32987  eV     1   --> A_2  D_2  S_2  
     e(  8 -  8) =     20.50257  eV     1   --> B_2  D_4  S_4  
     e(  9 -  9) =     21.89592  eV     1   --> B_1  D_3  S_3  
     e( 10 - 10) =     22.94795  eV     1   --> A_1  D_1  S_1  
     e( 11 - 11) =     24.46077  eV     1   --> A_2  D_2  S_2  
     e( 12 - 12) =     24.66187  eV     1   --> B_2  D_4  S_4  
     e( 13 - 13) =     25.33107  eV     1   --> A_1  D_1  S_1  
     e( 14 - 14) =     31.11669  eV     1   --> B_1  D_3  S_3  
     e( 15 - 15) =     37.08343  eV     1   --> A_2  D_2  S_2  
     e( 16 - 16) =     37.09565  eV     1   --> B_2  D_4  S_4  
     e( 17 - 17) =     39.02604  eV     1   --> A_2  D_2  S_2  
     e( 18 - 18) =     39.59092  eV     1   --> B_2  D_4  S_4  
     e( 19 - 19) =     44.30101  eV     1   --> A_1  D_1  S_1  
     e( 20 - 20) =     47.93622  eV     1   --> B_1  D_3  S_3  

 **************************************************************************

 **************************************************************************

                    xk=(   0.05000,   0.08660,   0.46831  )

     Band symmetry, C_2v (mm2)  point group:

     e(  1 -  1) =    -36.46340  eV     1   --> A_1  D_1  S_1  
     e(  2 -  2) =    -11.49151  eV     1   --> B_2  D_4  S_4  
     e(  3 -  3) =    -10.20774  eV     1   --> A_1  D_1  S_1  
     e(  4 -  4) =    -10.13104  eV     1   --> B_1  D_3  S_3  
     e(  5 -  5) =     12.22728  eV     1   --> B_2  D_4  S_4  
     e(  6 -  6) =     14.96297  eV     1   --> A_1  D_1  S_1  
     e(  7 -  7) =     20.61933  eV     1   --> A_2  D_2  S_2  
     e(  8 -  8) =     20.74194  eV     1   --> B_2  D_4  S_4  
     e(  9 -  9) =     22.05838  eV     1   --> B_1  D_3  S_3  
     e( 10 - 10) =     22.85241  eV     1   --> A_1  D_1  S_1  
     e( 11 - 11) =     24.18681  eV     1   --> A_2  D_2  S_2  
     e( 12 - 12) =     24.33943  eV     1   --> B_2  D_4  S_4  
     e( 13 - 13) =     25.29241  eV     1   --> A_1  D_1  S_1  
     e( 14 - 14) =     30.86667  eV     1   --> B_1  D_3  S_3  
     e( 15 - 15) =     37.02950  eV     1   --> A_2  D_2  S_2  
     e( 16 - 16) =     37.18519  eV     1   --> B_2  D_4  S_4  
     e( 17 - 17) =     38.99085  eV     1   --> A_2  D_2  S_2  
     e( 18 - 18) =     39.42347  eV     1   --> B_2  D_4  S_4  
     e( 19 - 19) =     44.48881  eV     1   --> A_1  D_1  S_1  
     e( 20 - 20) =     48.33861  eV     1   --> B_1  D_3  S_3  

 **************************************************************************

 **************************************************************************

                    xk=(   0.04167,   0.07217,   0.46831  )

     Band symmetry, C_2v (mm2)  point group:

     e(  1 -  1) =    -36.46750  eV     1   --> A_1  D_1  S_1  
     e(  2 -  2) =    -11.49827  eV     1   --> B_2  D_4  S_4  
     e(  3 -  3) =    -10.17840  eV     1   --> A_1  D_1  S_1  
     e(  4 -  4) =    -10.12433  eV     1   --> B_1  D_3  S_3  
     e(  5 -  5) =     12.23809  eV     1   --> B_2  D_4  S_4  
     e(  6 -  6) =     14.87359  eV     1   --> A_1  D_1  S_1  
     e(  7 -  7) =     20.90835  eV     1   --> A_2  D_2  S_2  
     e(  8 -  8) =     20.98962  eV     1   --> B_2  D_4  S_4  
     e(  9 -  9) =     22.20634  eV     1   --> B_1  D_3  S_3  
     e( 10 - 10) =     22.77143  eV     1   --> A_1  D_1  S_1  
     e( 11 - 11) =     23.91112  eV     1   --> A_2  D_2  S_2  
     e( 12 - 12) =     24.02129  eV     1   --> B_2  D_4  S_4  
     e( 13 - 13) =     25.25953  eV     1   --> A_1  D_1  S_1  
     e( 14 - 14) =     30.64231  eV     1   --> B_1  D_3  S_3  
     e( 15 - 15) =     36.97601  eV     1   --> A_2  D_2  S_2  
     e( 16 - 16) =     37.26347  eV     1   --> B_2  D_4  S_4  
     e( 17 - 17) =     38.96936  eV     1   --> A_2  D_2  S_2  
     e( 18 - 18) =     39.28038  eV     1   --> B_2  D_4  S_4  
     e( 19 - 19) =     44.64813  eV     1   --> A_1  D_1  S_1  
     e( 20 - 20) =     48.75017  eV     1   --> B_1  D_3  S_3  

 **************************************************************************

 **************************************************************************

                    xk=(   0.03333,   0.05774,   0.46831  )

     Band symmetry, C_2v (mm2)  point group:

     e(  1 -  1) =    -36.47091  eV     1   --> A_1  D_1  S_1  
     e(  2 -  2) =    -11.50388  eV     1   --> B_2  D_4  S_4  
     e(  3 -  3) =    -10.15389  eV     1   --> A_1  D_1  S_1  
     e(  4 -  4) =    -10.11885  eV     1   --> B_1  D_3  S_3  
     e(  5 -  5) =     12.24703  eV     1   --> B_2  D_4  S_4  
     e(  6 -  6) =     14.79957  eV     1   --> A_1  D_1  S_1  
     e(  7 -  7) =     21.19532  eV     1   --> A_2  D_2  S_2  
     e(  8 -  8) =     21.24391  eV     1   --> B_2  D_4  S_4  
     e(  9 -  9) =     22.33561  eV     1   --> B_1  D_3  S_3  
     e( 10 - 10) =     22.70510  eV     1   --> A_1  D_1  S_1  
     e( 11 - 11) =     23.63518  eV     1   --> A_2  D_2  S_2  
     e( 12 - 12) =     23.70923  eV     1   --> B_2  D_4  S_4  
     e( 13 - 13) =     25.23252  eV     1   --> A_1  D_1  S_1  
     e( 14 - 14) =     30.44899  eV     1   --> B_1  D_3  S_3  
     e( 15 - 15) =     36.92702  eV     1   --> A_2  D_2  S_2  
     e( 16 - 16) =     37.32952  eV     1   --> B_2  D_4  S_4  
     e( 17 - 17) =     38.95734  eV     1   --> A_2  D_2  S_2  
     e( 18 - 18) =     39.16208  eV     1   --> B_2  D_4  S_4  
     e( 19 - 19) =     44.77886  eV     1   --> A_1  D_1  S_1  
     e( 20 - 20) =     49.16512  eV     1   --> B_1  D_3  S_3  

 **************************************************************************

 **************************************************************************

                    xk=(   0.02500,   0.04330,   0.46831  )

     Band symmetry, C_2v (mm2)  point group:

     e(  1 -  1) =    -36.47358  eV     1   --> A_1  D_1  S_1  
     e(  2 -  2) =    -11.50828  eV     1   --> B_2  D_4  S_4  
     e(  3 -  3) =    -10.13450  eV     1   --> A_1  D_1  S_1  
     e(  4 -  4) =    -10.11460  eV     1   --> B_1  D_3  S_3  
     e(  5 -  5) =     12.25404  eV     1   --> B_2  D_4  S_4  
     e(  6 -  6) =     14.74145  eV     1   --> A_1  D_1  S_1  
     e(  7 -  7) =     21.47723  eV     1   --> A_2  D_2  S_2  
     e(  8 -  8) =     21.50168  eV     1   --> B_2  D_4  S_4  
     e(  9 -  9) =     22.44192  eV     1   --> B_1  D_3  S_3  
     e( 10 - 10) =     22.65346  eV     1   --> A_1  D_1  S_1  
     e( 11 - 11) =     23.36194  eV     1   --> A_2  D_2  S_2  
     e( 12 - 12) =     23.40647  eV     1   --> B_2  D_4  S_4  
     e( 13 - 13) =     25.21143  eV     1   --> A_1  D_1  S_1  
     e( 14 - 14) =     30.29194  eV     1   --> B_1  D_3  S_3  
     e( 15 - 15) =     36.88583  eV     1   --> A_2  D_2  S_2  
     e( 16 - 16) =     37.38237  eV     1   --> B_2  D_4  S_4  
     e( 17 - 17) =     38.95137  eV     1   --> A_2  D_2  S_2  
     e( 18 - 18) =     39.06912  eV     1   --> B_2  D_4  S_4  
     e( 19 - 19) =     44.88082  eV     1   --> A_1  D_1  S_1  
     e( 20 - 20) =     49.57362  eV     1   --> B_1  D_3  S_3  

 **************************************************************************

 **************************************************************************

                    xk=(   0.01667,   0.02887,   0.46831  )

     Band symmetry, C_2v (mm2)  point group:

     e(  1 -  1) =    -36.47551  eV     1   --> A_1  D_1  S_1  
     e(  2 -  2) =    -11.51145  eV     1   --> B_2  D_4  S_4  
     e(  3 -  3) =    -10.12047  eV     1   --> A_1  D_1  S_1  
     e(  4 -  4) =    -10.11157  eV     1   --> B_1  D_3  S_3  
     e(  5 -  5) =     12.25908  eV     1   --> B_2  D_4  S_4  
     e(  6 -  6) =     14.69963  eV     1   --> A_1  D_1  S_1  
     e(  7 -  7) =     21.74677  eV     1   --> A_2  D_2  S_2  
     e(  8 -  8) =     21.75552  eV     1   --> B_2  D_4  S_4  
     e(  9 -  9) =     22.52128  eV     1   --> B_1  D_3  S_3  
     e( 10 - 10) =     22.61655  eV     1   --> A_1  D_1  S_1  
     e( 11 - 11) =     23.09863  eV     1   --> A_2  D_2  S_2  
     e( 12 - 12) =     23.12049  eV     1   --> B_2  D_4  S_4  
     e( 13 - 13) =     25.19634  eV     1   --> A_1  D_1  S_1  
     e( 14 - 14) =     30.17584  eV     1   --> B_1  D_3  S_3  
     e( 15 - 15) =     36.85488  eV     1   --> A_2  D_2  S_2  
     e( 16 - 16) =     37.42104  eV     1   --> B_2  D_4  S_4  
     e( 17 - 17) =     38.94887  eV     1   --> A_2  D_2  S_2  
     e( 18 - 18) =     39.00207  eV     1   --> B_2  D_4  S_4  
     e( 19 - 19) =     44.95382  eV     1   --> A_1  D_1  S_1  
     e( 20 - 20) =     49.95537  eV     1   --> B_1  D_3  S_3  

 **************************************************************************

 **************************************************************************

                    xk=(   0.00833,   0.01443,   0.46831  )

     Band symmetry, C_2v (mm2)  point group:

     e(  1 -  1) =    -36.47667  eV     1   --> A_1  D_1  S_1  
     e(  2 -  2) =    -11.51336  eV     1   --> B_2  D_4  S_4  
     e(  3 -  3) =    -10.11199  eV     1   --> A_1  D_1  S_1  
     e(  4 -  4) =    -10.10975  eV     1   --> B_1  D_3  S_3  
     e(  5 -  5) =     12.26212  eV     1   --> B_2  D_4  S_4  
     e(  6 -  6) =     14.67442  eV     1   --> A_1  D_1  S_1  
     e(  7 -  7) =     21.98055  eV     1   --> A_2  D_2  S_2  
     e(  8 -  8) =     21.98177  eV     1   --> B_2  D_4  S_4  
     e(  9 -  9) =     22.57038  eV     1   --> B_1  D_3  S_3  
     e( 10 - 10) =     22.59440  eV     1   --> A_1  D_1  S_1  
     e( 11 - 11) =     22.86860  eV     1   --> A_2  D_2  S_2  
     e( 12 - 12) =     22.87497  eV     1   --> B_2  D_4  S_4  
     e( 13 - 13) =     25.18727  eV     1   --> A_1  D_1  S_1  
     e( 14 - 14) =     30.10451  eV     1   --> B_1  D_3  S_3  
     e( 15 - 15) =     36.83583  eV     1   --> A_2  D_2  S_2  
     e( 16 - 16) =     37.44467  eV     1   --> B_2  D_4  S_4  
     e( 17 - 17) =     38.94806  eV     1   --> A_2  D_2  S_2  
     e( 18 - 18) =     38.96153  eV     1   --> B_2  D_4  S_4  
     e( 19 - 19) =     44.99773  eV     1   --> A_1  D_1  S_1  
     e( 20 - 20) =     50.26195  eV     1   --> B_1  D_3  S_3  

 **************************************************************************

 **************************************************************************

                    xk=(   0.00000,   0.00000,   0.46831  )

     point group D_6h(6/mmm)
     there are 12 classes
     the character table:

       E     2C6   2C3   C2    3C2'  3C2'' i     2S3   2S6   s_h   3s_d  3s_v 
A_1g   1.00  1.00  1.00  1.00  1.00  1.00  1.00  1.00  1.00  1.00  1.00  1.00
A_2g   1.00  1.00  1.00  1.00 -1.00 -1.00  1.00  1.00  1.00  1.00 -1.00 -1.00
B_1g   1.00 -1.00  1.00 -1.00  1.00 -1.00  1.00 -1.00  1.00 -1.00  1.00 -1.00
B_2g   1.00 -1.00  1.00 -1.00 -1.00  1.00  1.00 -1.00  1.00 -1.00 -1.00  1.00
E_1g   2.00  1.00 -1.00 -2.00  0.00  0.00  2.00  1.00 -1.00 -2.00  0.00  0.00
E_2g   2.00 -1.00 -1.00  2.00  0.00  0.00  2.00 -1.00 -1.00  2.00  0.00  0.00
A_1u   1.00  1.00  1.00  1.00  1.00  1.00 -1.00 -1.00 -1.00 -1.00 -1.00 -1.00
A_2u   1.00  1.00  1.00  1.00 -1.00 -1.00 -1.00 -1.00 -1.00 -1.00  1.00  1.00
B_1u   1.00 -1.00  1.00 -1.00  1.00 -1.00 -1.00  1.00 -1.00  1.00 -1.00  1.00
B_2u   1.00 -1.00  1.00 -1.00 -1.00  1.00 -1.00  1.00 -1.00  1.00  1.00 -1.00
E_1u   2.00  1.00 -1.00 -2.00  0.00  0.00 -2.00 -1.00  1.00  2.00  0.00  0.00
E_2u   2.00 -1.00 -1.00  2.00  0.00  0.00 -2.00  1.00  1.00 -2.00  0.00  0.00

     the symmetry operations in each class and the name of the first element:

     E        1
                                                                 
     2C6      5    6
                                                                 
     2C3      7    8
                                                                 
     C2       2
                                                                 
     3C2'     4   12   11
                                                                 
     3C2''    3    9   10
                                                                 
     i       13
                                                                 
     2S3     17   18
                                                                 
     2S6     19   20
                                                                 
     s_h     14
                                                                 
     3s_d    16   24   23
                                                                 
     3s_v    15   21   22
                                                                 

     Band symmetry, D_6h(6/mmm) point group:

     e(  1 -  1) =    -36.47708  eV     1   --> A_1g           
     e(  2 -  2) =    -11.51400  eV     1   --> A_2u           
     e(  3 -  4) =    -10.10915  eV     2   --> E_1u           
     e(  5 -  5) =     12.26278  eV     1   --> A_2u           
     e(  6 -  6) =     14.66599  eV     1   --> A_1g           
     e(  7 -  8) =     22.09281  eV     2   --> E_1g           
     e(  9 - 10) =     22.58701  eV     2   --> E_2g           
     e( 11 - 12) =     22.75443  eV     2   --> E_2u           
     e( 13 - 13) =     25.18424  eV     1   --> A_1g           
     e( 14 - 14) =     30.08022  eV     1   --> B_2u           
     e( 15 - 15) =     36.82729  eV     1   --> B_1g           
     e( 16 - 16) =     37.45263  eV     1   --> A_2u           
     e( 17 - 18) =     38.94607  eV     2   --> E_1g           
     e( 19 - 19) =     45.01181  eV     1   --> A_1g           
     e( 20 - 20) =     50.39065  eV     1   -->   ?

 **************************************************************************
 
     BANDS        :      7.58s CPU      9.46s WALL

 
   This run was terminated on:   8:58:25  28Apr2022            

=------------------------------------------------------------------------------=
   JOB DONE.
=------------------------------------------------------------------------------=
