
     Program PWSCF v.7.0 starts on 11Apr2022 at 19: 7:50 

     This program is part of the open-source Quantum ESPRESSO suite
     for quantum simulation of materials; please cite
         "P. Giannozzi et al., J. Phys.:Condens. Matter 21 395502 (2009);
         "P. Giannozzi et al., J. Phys.:Condens. Matter 29 465901 (2017);
         "P. Giannozzi et al., J. Chem. Phys. 152 154105 (2020);
          URL http://www.quantum-espresso.org", 
     in publications or presentations arising from this work. More details at
     http://www.quantum-espresso.org/quote

     Parallel version (MPI), running on     8 processors

     MPI processes distributed on     1 nodes
     R & G space division:  proc/nbgrp/npool/nimage =       8
     1485 MiB available memory on the printing compute node when the environment starts
 
     Reading input from mob2_pw.in

     Current dimensions of program PWSCF are:
     Max number of different atomic species (ntypx) = 10
     Max number of k-points (npk) =  40000
     Max angular momentum in pseudopotentials (lmaxx) =  4

     Subspace diagonalization in iterative solution of the eigenvalue problem:
     a serial algorithm will be used

 
     Parallelization info
     --------------------
     sticks:   dense  smooth     PW     G-vecs:    dense   smooth      PW
     Min          37      37     11                  607      607     113
     Max          39      39     12                  609      609     115
     Sum         301     301     91                 4861     4861     909
 
     Using Slab Decomposition
 


     bravais-lattice index     =            4
     lattice parameter (alat)  =       5.4558  a.u.
     unit-cell volume          =     166.3797 (a.u.)^3
     number of atoms/cell      =            3
     number of atomic types    =            2
     number of electrons       =        20.00
     number of Kohn-Sham states=           20
     kinetic-energy cutoff     =      36.0000  Ry
     charge density cutoff     =     144.0000  Ry
     scf convergence threshold =      1.0E-06
     mixing beta               =       0.7000
     number of iterations used =            8  plain     mixing
     Exchange-correlation= PBE
                           (   1   4   3   4   0   0   0)

     celldm(1)=   5.455840  celldm(2)=   0.000000  celldm(3)=   1.183000
     celldm(4)=   0.000000  celldm(5)=   0.000000  celldm(6)=   0.000000

     crystal axes: (cart. coord. in units of alat)
               a(1) = (   1.000000   0.000000   0.000000 )  
               a(2) = (  -0.500000   0.866025   0.000000 )  
               a(3) = (   0.000000   0.000000   1.183000 )  

     reciprocal axes: (cart. coord. in units 2 pi/alat)
               b(1) = (  1.000000  0.577350  0.000000 )  
               b(2) = (  0.000000  1.154701  0.000000 )  
               b(3) = (  0.000000  0.000000  0.845309 )  


     PseudoPot. # 1 for Mo read from file:
     /home/marcocarmonaga/Apps/qe-7.0/pseudo/Mo_ONCV_PBE-1.2.upf
     MD5 check sum: 2665c9f4159700498d9a5f7573bd8e9f
     Pseudo is Norm-conserving, Zval = 14.0
     Generated using ONCVPSP code by D. R. Hamann
     Using radial grid of  602 points,  6 beta functions with: 
                l(1) =   0
                l(2) =   0
                l(3) =   1
                l(4) =   1
                l(5) =   2
                l(6) =   2

     PseudoPot. # 2 for B  read from file:
     /home/marcocarmonaga/Apps/qe-7.0/pseudo/B_ONCV_PBE-1.2.upf
     MD5 check sum: eb3cbeacc2d324d57d903df00f564d27
     Pseudo is Norm-conserving, Zval =  3.0
     Generated using ONCVPSP code by D. R. Hamann
     Using radial grid of  602 points,  4 beta functions with: 
                l(1) =   0
                l(2) =   0
                l(3) =   1
                l(4) =   1

     atomic species   valence    mass     pseudopotential
        Mo            14.00    95.95000     Mo( 1.00)
        B              3.00    10.81000     B ( 1.00)

     24 Sym. Ops., with inversion, found



   Cartesian axes

     site n.     atom                  positions (alat units)
         1           Mo  tau(   1) = (   0.0000000   0.0000000   0.0000000  )
         2           B   tau(   2) = (   0.5000000   0.2886751   0.5915000  )
         3           B   tau(   3) = (  -0.0000000   0.5773503   0.5915000  )

     number of k points=   333  Gaussian smearing, width (Ry)=  0.0150

     Number of k-points >= 100: set verbosity='high' to print them.

     Dense  grid:     4861 G-vectors     FFT dimensions: (  24,  24,  25)

     Estimated max dynamical RAM per process >      10.22 MB

     Estimated total dynamical RAM >      81.74 MB

     Initial potential from superposition of free atoms

     starting charge      19.8751, renormalised to      20.0000
     Starting wfcs are random

     total cpu time spent up to now is        1.1 secs

     Self-consistent Calculation

     iteration #  1     ecut=    36.00 Ry     beta= 0.70
     Davidson diagonalization with overlap
     ethr =  1.00E-02,  avg # of iterations =  7.8

     total cpu time spent up to now is        9.0 secs

     total energy              =    -148.19985000 Ry
     estimated scf accuracy    <       0.62716372 Ry

     iteration #  2     ecut=    36.00 Ry     beta= 0.70
     Davidson diagonalization with overlap
     ethr =  3.14E-03,  avg # of iterations =  2.3

     total cpu time spent up to now is       12.4 secs

     total energy              =    -148.13563572 Ry
     estimated scf accuracy    <       2.19124173 Ry

     iteration #  3     ecut=    36.00 Ry     beta= 0.70
     Davidson diagonalization with overlap
     ethr =  3.14E-03,  avg # of iterations =  1.8

     total cpu time spent up to now is       15.5 secs

     total energy              =    -148.54789314 Ry
     estimated scf accuracy    <       0.01081288 Ry

     iteration #  4     ecut=    36.00 Ry     beta= 0.70
     Davidson diagonalization with overlap
     ethr =  5.41E-05,  avg # of iterations =  4.2

     total cpu time spent up to now is       20.0 secs

     total energy              =    -148.54950444 Ry
     estimated scf accuracy    <       0.00045051 Ry

     iteration #  5     ecut=    36.00 Ry     beta= 0.70
     Davidson diagonalization with overlap
     ethr =  2.25E-06,  avg # of iterations =  4.3

     total cpu time spent up to now is       24.0 secs

     total energy              =    -148.54960423 Ry
     estimated scf accuracy    <       0.00002263 Ry

     iteration #  6     ecut=    36.00 Ry     beta= 0.70
     Davidson diagonalization with overlap
     ethr =  1.13E-07,  avg # of iterations =  1.4

     total cpu time spent up to now is       26.6 secs

     End of self-consistent calculation

     Number of k-points >= 100: set verbosity='high' to print the bands.

     the Fermi energy is    20.5427 ev

!    total energy              =    -148.54960731 Ry
     estimated scf accuracy    <       0.00000050 Ry
     smearing contrib. (-TS)   =      -0.00232853 Ry
     internal energy E=F+TS    =    -148.54727879 Ry

     The total energy is F=E-TS. E is the sum of the following terms:
     one-electron contribution =     -15.02287787 Ry
     hartree contribution      =      20.75950154 Ry
     xc contribution           =     -20.39621683 Ry
     ewald contribution        =    -133.88768563 Ry

     convergence has been achieved in   6 iterations

     Writing all to output data dir ./tmp/mob2.save/
 
     init_run     :      0.85s CPU      0.92s WALL (       1 calls)
     electrons    :     23.54s CPU     25.48s WALL (       1 calls)

     Called by init_run:
     wfcinit      :      0.85s CPU      0.89s WALL (       1 calls)
     potinit      :      0.00s CPU      0.00s WALL (       1 calls)
     hinit0       :      0.00s CPU      0.03s WALL (       1 calls)

     Called by electrons:
     c_bands      :     20.98s CPU     22.65s WALL (       6 calls)
     sum_band     :      2.56s CPU      2.81s WALL (       6 calls)
     v_of_rho     :      0.01s CPU      0.01s WALL (       7 calls)
     mix_rho      :      0.00s CPU      0.00s WALL (       6 calls)

     Called by c_bands:
     init_us_2    :      0.23s CPU      0.24s WALL (    4329 calls)
     init_us_2:cp :      0.22s CPU      0.23s WALL (    4329 calls)
     cegterg      :     20.14s CPU     21.78s WALL (    1998 calls)

     Called by *egterg:
     cdiaghg      :      4.76s CPU      5.12s WALL (    9289 calls)
     h_psi        :     14.11s CPU     15.33s WALL (    9622 calls)
     g_psi        :      0.04s CPU      0.04s WALL (    7291 calls)

     Called by h_psi:
     h_psi:calbec :      0.44s CPU      0.46s WALL (    9622 calls)
     vloc_psi     :     13.25s CPU     14.43s WALL (    9622 calls)
     add_vuspsi   :      0.32s CPU      0.33s WALL (    9622 calls)

     General routines
     calbec       :      0.42s CPU      0.44s WALL (    9622 calls)
     fft          :      0.00s CPU      0.03s WALL (      69 calls)
     ffts         :      0.00s CPU      0.00s WALL (       6 calls)
     fftw         :     14.27s CPU     15.56s WALL (  290942 calls)
 
     Parallel routines
 
     PWSCF        :     25.25s CPU     27.40s WALL

 
   This run was terminated on:  19: 8:18  11Apr2022            

=------------------------------------------------------------------------------=
   JOB DONE.
=------------------------------------------------------------------------------=
