
     Program PWSCF v.7.0 starts on 27Apr2022 at 22:10:28 

     This program is part of the open-source Quantum ESPRESSO suite
     for quantum simulation of materials; please cite
         "P. Giannozzi et al., J. Phys.:Condens. Matter 21 395502 (2009);
         "P. Giannozzi et al., J. Phys.:Condens. Matter 29 465901 (2017);
         "P. Giannozzi et al., J. Chem. Phys. 152 154105 (2020);
          URL http://www.quantum-espresso.org", 
     in publications or presentations arising from this work. More details at
     http://www.quantum-espresso.org/quote

     Parallel version (MPI), running on     8 processors

     MPI processes distributed on     1 nodes
     R & G space division:  proc/nbgrp/npool/nimage =       8
     449 MiB available memory on the printing compute node when the environment starts
 
     Reading input from mob2_nscf.in

     Current dimensions of program PWSCF are:
     Max number of different atomic species (ntypx) = 10
     Max number of k-points (npk) =  40000
     Max angular momentum in pseudopotentials (lmaxx) =  4

     Atomic positions and unit cell read from directory:
     ./tmp/mob2.save/
     Atomic positions from file used, from input discarded
 
     [opt_tetra]  Optimized tetrahedron method is used.

     Subspace diagonalization in iterative solution of the eigenvalue problem:
     a serial algorithm will be used

 
     Parallelization info
     --------------------
     sticks:   dense  smooth     PW     G-vecs:    dense   smooth      PW
     Min          36      36     11                  544      544     103
     Max          37      37     12                  547      547     105
     Sum         295     295     91                 4373     4373     835
 
     Using Slab Decomposition
 


     bravais-lattice index     =            4
     lattice parameter (alat)  =       5.4261  a.u.
     unit-cell volume          =     148.8445 (a.u.)^3
     number of atoms/cell      =            3
     number of atomic types    =            2
     number of electrons       =        20.00
     number of Kohn-Sham states=           20
     kinetic-energy cutoff     =      36.0000  Ry
     charge density cutoff     =     144.0000  Ry
     Exchange-correlation= PBE
                           (   1   4   3   4   0   0   0)

     celldm(1)=   5.426130  celldm(2)=   0.000000  celldm(3)=   1.075800
     celldm(4)=   0.000000  celldm(5)=   0.000000  celldm(6)=   0.000000

     crystal axes: (cart. coord. in units of alat)
               a(1) = (   1.000000   0.000000   0.000000 )  
               a(2) = (  -0.500000   0.866025   0.000000 )  
               a(3) = (   0.000000   0.000000   1.075800 )  

     reciprocal axes: (cart. coord. in units 2 pi/alat)
               b(1) = (  1.000000  0.577350  0.000000 )  
               b(2) = (  0.000000  1.154701  0.000000 )  
               b(3) = (  0.000000  0.000000  0.929541 )  


     PseudoPot. # 1 for Mo read from file:
     /home/marcocarmonaga/Apps/qe-7.0/pseudo/Mo_ONCV_PBE-1.2.upf
     MD5 check sum: 2665c9f4159700498d9a5f7573bd8e9f
     Pseudo is Norm-conserving, Zval = 14.0
     Generated using ONCVPSP code by D. R. Hamann
     Using radial grid of  602 points,  6 beta functions with: 
                l(1) =   0
                l(2) =   0
                l(3) =   1
                l(4) =   1
                l(5) =   2
                l(6) =   2

     PseudoPot. # 2 for B  read from file:
     /home/marcocarmonaga/Apps/qe-7.0/pseudo/B_ONCV_PBE-1.2.upf
     MD5 check sum: eb3cbeacc2d324d57d903df00f564d27
     Pseudo is Norm-conserving, Zval =  3.0
     Generated using ONCVPSP code by D. R. Hamann
     Using radial grid of  602 points,  4 beta functions with: 
                l(1) =   0
                l(2) =   0
                l(3) =   1
                l(4) =   1

     atomic species   valence    mass     pseudopotential
        Mo            14.00    95.95000     Mo( 1.00)
        B              3.00    10.81000     B ( 1.00)

     24 Sym. Ops., with inversion, found



   Cartesian axes

     site n.     atom                  positions (alat units)
         1           Mo  tau(   1) = (   0.0000000   0.0000000   0.0000000  )
         2           B   tau(   2) = (   0.5000000   0.2886751   0.5379000  )
         3           B   tau(   3) = (   0.0000000   0.5773503   0.5379000  )

     number of k points=  2286 (tetrahedron method)

     Number of k-points >= 100: set verbosity='high' to print them.

     Dense  grid:     4373 G-vectors     FFT dimensions: (  24,  24,  24)

     Estimated max dynamical RAM per process >       2.36 MB

     Estimated total dynamical RAM >      18.86 MB

     The potential is recalculated from file :
     ./tmp/mob2.save/charge-density

     Starting wfcs are random

     Band Structure Calculation
     Davidson diagonalization with overlap

     ethr =  5.00E-11,  avg # of iterations = 36.1

     total cpu time spent up to now is      289.9 secs

     End of band structure calculation

     Number of k-points >= 100: set verbosity='high' to print the bands.

     the Fermi energy is    23.4813 ev
     (compare with:    23.4766 eV, computed in scf)

     Writing all to output data dir ./tmp/mob2.save/
 
     init_run     :      0.05s CPU      0.08s WALL (       1 calls)
     electrons    :    206.31s CPU    219.31s WALL (       1 calls)

     Called by init_run:
     wfcinit      :      0.00s CPU      0.00s WALL (       1 calls)
     potinit      :      0.00s CPU      0.00s WALL (       1 calls)
     hinit0       :      0.03s CPU      0.06s WALL (       1 calls)

     Called by electrons:
     c_bands      :    168.02s CPU    180.93s WALL (       1 calls)
     v_of_rho     :      0.00s CPU      0.00s WALL (       1 calls)

     Called by c_bands:
     init_us_2    :      0.13s CPU      0.14s WALL (    2286 calls)
     init_us_2:cp :      0.13s CPU      0.13s WALL (    2286 calls)
     cegterg      :    162.15s CPU    174.36s WALL (    4914 calls)

     Called by *egterg:
     cdiaghg      :     50.09s CPU     52.94s WALL (   84905 calls)
     h_psi        :    100.28s CPU    108.76s WALL (   89819 calls)
     g_psi        :      0.39s CPU      0.41s WALL (   82619 calls)

     Called by h_psi:
     h_psi:calbec :      3.63s CPU      4.02s WALL (   89819 calls)
     vloc_psi     :     93.26s CPU    101.15s WALL (   89819 calls)
     add_vuspsi   :      2.51s CPU      2.69s WALL (   89819 calls)

     General routines
     calbec       :      3.40s CPU      3.79s WALL (   89819 calls)
     fft          :      0.01s CPU      0.04s WALL (      10 calls)
     fftw         :     85.41s CPU     92.85s WALL ( 2163230 calls)
     davcio       :      0.20s CPU      0.51s WALL (    4572 calls)
 
     Parallel routines
 
     PWSCF        :   4m37.74s CPU   4m53.72s WALL

 
   This run was terminated on:  22:15:22  27Apr2022            

=------------------------------------------------------------------------------=
   JOB DONE.
=------------------------------------------------------------------------------=
