
     Program BANDS v.7.0 starts on 28Apr2022 at 15:54:56 

     This program is part of the open-source Quantum ESPRESSO suite
     for quantum simulation of materials; please cite
         "P. Giannozzi et al., J. Phys.:Condens. Matter 21 395502 (2009);
         "P. Giannozzi et al., J. Phys.:Condens. Matter 29 465901 (2017);
         "P. Giannozzi et al., J. Chem. Phys. 152 154105 (2020);
          URL http://www.quantum-espresso.org", 
     in publications or presentations arising from this work. More details at
     http://www.quantum-espresso.org/quote

     Parallel version (MPI), running on     8 processors

     MPI processes distributed on     1 nodes
     R & G space division:  proc/nbgrp/npool/nimage =       8
     2267 MiB available memory on the printing compute node when the environment starts
 

     Reading xml data from directory:

     ./tmp/mob2.save/

     IMPORTANT: XC functional enforced from input :
     Exchange-correlation= PBE
                           (   1   4   3   4   0   0   0)
     Any further DFT definition will be discarded
     Please, verify this is what you really want

 
     Parallelization info
     --------------------
     sticks:   dense  smooth     PW     G-vecs:    dense   smooth      PW
     Min          36      36     11                  544      544     103
     Max          37      37     12                  547      547     105
     Sum         295     295     91                 4373     4373     835
 
     Using Slab Decomposition
 
     Reading collected, re-writing distributed wavefunctions
     high-symmetry point:  0.0000 0.0000 0.0000   x coordinate   0.0000
     high-symmetry point:  0.0000 0.5774 0.0000   x coordinate   0.5774
     high-symmetry point:  0.3333 0.5774 0.0000   x coordinate   0.9107
     high-symmetry point:  0.0000 0.0000 0.0000   x coordinate   1.5774
     high-symmetry point:  0.0000 0.0000 0.4648   x coordinate   2.0421
     high-symmetry point:  0.0000 0.5774 0.4648   x coordinate   2.6195
     high-symmetry point:  0.3333 0.5774 0.4648   x coordinate   2.9528
     high-symmetry point:  0.0000 0.0000 0.4648   x coordinate   3.6195

     Plottable bands (eV) written to file mob2_bands.bands.gnu
     Bands written to file mob2_bands.bands

 **************************************************************************

                    xk=(   0.00000,   0.00000,   0.00000  )

     point group D_6h(6/mmm)
     there are 12 classes
     the character table:

       E     2C6   2C3   C2    3C2'  3C2'' i     2S3   2S6   s_h   3s_d  3s_v 
A_1g   1.00  1.00  1.00  1.00  1.00  1.00  1.00  1.00  1.00  1.00  1.00  1.00
A_2g   1.00  1.00  1.00  1.00 -1.00 -1.00  1.00  1.00  1.00  1.00 -1.00 -1.00
B_1g   1.00 -1.00  1.00 -1.00  1.00 -1.00  1.00 -1.00  1.00 -1.00  1.00 -1.00
B_2g   1.00 -1.00  1.00 -1.00 -1.00  1.00  1.00 -1.00  1.00 -1.00 -1.00  1.00
E_1g   2.00  1.00 -1.00 -2.00  0.00  0.00  2.00  1.00 -1.00 -2.00  0.00  0.00
E_2g   2.00 -1.00 -1.00  2.00  0.00  0.00  2.00 -1.00 -1.00  2.00  0.00  0.00
A_1u   1.00  1.00  1.00  1.00  1.00  1.00 -1.00 -1.00 -1.00 -1.00 -1.00 -1.00
A_2u   1.00  1.00  1.00  1.00 -1.00 -1.00 -1.00 -1.00 -1.00 -1.00  1.00  1.00
B_1u   1.00 -1.00  1.00 -1.00  1.00 -1.00 -1.00  1.00 -1.00  1.00 -1.00  1.00
B_2u   1.00 -1.00  1.00 -1.00 -1.00  1.00 -1.00  1.00 -1.00  1.00  1.00 -1.00
E_1u   2.00  1.00 -1.00 -2.00  0.00  0.00 -2.00 -1.00  1.00  2.00  0.00  0.00
E_2u   2.00 -1.00 -1.00  2.00  0.00  0.00 -2.00  1.00  1.00 -2.00  0.00  0.00

     the symmetry operations in each class and the name of the first element:

     E        1
                                                                 
     2C6      5    6
                                                                 
     2C3      7    8
                                                                 
     C2       2
                                                                 
     3C2'     4   12   11
                                                                 
     3C2''    3    9   10
                                                                 
     i       13
                                                                 
     2S3     17   18
                                                                 
     2S6     19   20
                                                                 
     s_h     14
                                                                 
     3s_d    16   24   23
                                                                 
     3s_v    15   21   22
                                                                 

     Band symmetry, D_6h(6/mmm) point group:

     e(  1 -  1) =    -38.51911  eV     1   --> A_1g           
     e(  2 -  2) =    -12.78942  eV     1   --> A_2u           
     e(  3 -  4) =    -12.23703  eV     2   --> E_1u           
     e(  5 -  5) =      7.34730  eV     1   --> A_1g           
     e(  6 -  6) =     17.37765  eV     1   --> A_1g           
     e(  7 -  8) =     17.73044  eV     2   --> E_2g           
     e(  9 -  9) =     19.53021  eV     1   --> A_2u           
     e( 10 - 11) =     23.62444  eV     2   --> E_1g           
     e( 12 - 13) =     26.34910  eV     2   --> E_2g           
     e( 14 - 15) =     28.29022  eV     2   --> E_1u           
     e( 16 - 16) =     29.22952  eV     1   --> B_2u           
     e( 17 - 17) =     32.41032  eV     1   --> B_1g           
     e( 18 - 18) =     34.36189  eV     1   --> A_1g           
     e( 19 - 20) =     40.99143  eV     2   --> E_2u           

 **************************************************************************

 **************************************************************************

                    xk=(   0.00000,   0.01443,   0.00000  )

     point group C_2v (mm2) 
     there are  4 classes
     the character table:

       E     C2    s_v   s_v' 
A_1    1.00  1.00  1.00  1.00
A_2    1.00  1.00 -1.00 -1.00
B_1    1.00 -1.00  1.00 -1.00
B_2    1.00 -1.00 -1.00  1.00

     the symmetry operations in each class and the name of the first element:

     E        1
                                                                 
     C2       2
                                                                 
     s_v      3
                                                                 
     s_v'     4
                                                                 

     Band symmetry, C_2v (mm2)  point group:

     e(  1 -  1) =    -38.51890  eV     1   --> A_1  D_1  S_1  
     e(  2 -  2) =    -12.78914  eV     1   --> B_2  D_4  S_4  
     e(  3 -  3) =    -12.23875  eV     1   --> A_1  D_1  S_1  
     e(  4 -  4) =    -12.23742  eV     1   --> B_1  D_3  S_3  
     e(  5 -  5) =      7.35104  eV     1   --> A_1  D_1  S_1  
     e(  6 -  6) =     17.38078  eV     1   --> A_1  D_1  S_1  
     e(  7 -  7) =     17.72235  eV     1   --> A_1  D_1  S_1  
     e(  8 -  8) =     17.73251  eV     1   --> B_1  D_3  S_3  
     e(  9 -  9) =     19.51998  eV     1   --> B_2  D_4  S_4  
     e( 10 - 10) =     23.62258  eV     1   --> A_2  D_2  S_2  
     e( 11 - 11) =     23.63778  eV     1   --> B_2  D_4  S_4  
     e( 12 - 12) =     26.31987  eV     1   --> A_1  D_1  S_1  
     e( 13 - 13) =     26.32401  eV     1   --> B_1  D_3  S_3  
     e( 14 - 14) =     28.31733  eV     1   --> A_1  D_1  S_1  
     e( 15 - 15) =     28.32406  eV     1   --> B_1  D_3  S_3  
     e( 16 - 16) =     29.24335  eV     1   --> A_1  D_1  S_1  
     e( 17 - 17) =     32.39413  eV     1   --> B_2  D_4  S_4  
     e( 18 - 18) =     34.36456  eV     1   --> A_1  D_1  S_1  
     e( 19 - 19) =     40.99905  eV     1   --> A_2  D_2  S_2  
     e( 20 - 20) =     41.01798  eV     1   --> B_2  D_4  S_4  

 **************************************************************************

 **************************************************************************

                    xk=(   0.00000,   0.02887,   0.00000  )

     Band symmetry, C_2v (mm2)  point group:

     e(  1 -  1) =    -38.51825  eV     1   --> A_1  D_1  S_1  
     e(  2 -  2) =    -12.78829  eV     1   --> B_2  D_4  S_4  
     e(  3 -  3) =    -12.24388  eV     1   --> A_1  D_1  S_1  
     e(  4 -  4) =    -12.23856  eV     1   --> B_1  D_3  S_3  
     e(  5 -  5) =      7.36222  eV     1   --> A_1  D_1  S_1  
     e(  6 -  6) =     17.39010  eV     1   --> A_1  D_1  S_1  
     e(  7 -  7) =     17.69817  eV     1   --> A_1  D_1  S_1  
     e(  8 -  8) =     17.73870  eV     1   --> B_1  D_3  S_3  
     e(  9 -  9) =     19.48955  eV     1   --> B_2  D_4  S_4  
     e( 10 - 10) =     23.61702  eV     1   --> A_2  D_2  S_2  
     e( 11 - 11) =     23.67729  eV     1   --> B_2  D_4  S_4  
     e( 12 - 12) =     26.23693  eV     1   --> A_1  D_1  S_1  
     e( 13 - 13) =     26.25362  eV     1   --> B_1  D_3  S_3  
     e( 14 - 14) =     28.39368  eV     1   --> A_1  D_1  S_1  
     e( 15 - 15) =     28.42068  eV     1   --> B_1  D_3  S_3  
     e( 16 - 16) =     29.28438  eV     1   --> A_1  D_1  S_1  
     e( 17 - 17) =     32.34469  eV     1   --> B_2  D_4  S_4  
     e( 18 - 18) =     34.37239  eV     1   --> A_1  D_1  S_1  
     e( 19 - 19) =     41.02188  eV     1   --> A_2  D_2  S_2  
     e( 20 - 20) =     41.09685  eV     1   --> B_2  D_4  S_4  

 **************************************************************************

 **************************************************************************

                    xk=(   0.00000,   0.04330,   0.00000  )

     Band symmetry, C_2v (mm2)  point group:

     e(  1 -  1) =    -38.51718  eV     1   --> A_1  D_1  S_1  
     e(  2 -  2) =    -12.78687  eV     1   --> B_2  D_4  S_4  
     e(  3 -  3) =    -12.25239  eV     1   --> A_1  D_1  S_1  
     e(  4 -  4) =    -12.24047  eV     1   --> B_1  D_3  S_3  
     e(  5 -  5) =      7.38080  eV     1   --> A_1  D_1  S_1  
     e(  6 -  6) =     17.40543  eV     1   --> A_1  D_1  S_1  
     e(  7 -  7) =     17.65841  eV     1   --> A_1  D_1  S_1  
     e(  8 -  8) =     17.74884  eV     1   --> B_1  D_3  S_3  
     e(  9 -  9) =     19.44023  eV     1   --> B_2  D_4  S_4  
     e( 10 - 10) =     23.60779  eV     1   --> A_2  D_2  S_2  
     e( 11 - 11) =     23.74154  eV     1   --> B_2  D_4  S_4  
     e( 12 - 12) =     26.11187  eV     1   --> A_1  D_1  S_1  
     e( 13 - 13) =     26.14929  eV     1   --> B_1  D_3  S_3  
     e( 14 - 14) =     28.50860  eV     1   --> A_1  D_1  S_1  
     e( 15 - 15) =     28.56822  eV     1   --> B_1  D_3  S_3  
     e( 16 - 16) =     29.35193  eV     1   --> A_1  D_1  S_1  
     e( 17 - 17) =     32.26420  eV     1   --> B_2  D_4  S_4  
     e( 18 - 18) =     34.38521  eV     1   --> A_1  D_1  S_1  
     e( 19 - 19) =     41.05984  eV     1   --> A_2  D_2  S_2  
     e( 20 - 20) =     41.22592  eV     1   --> B_2  D_4  S_4  

 **************************************************************************

 **************************************************************************

                    xk=(   0.00000,   0.05774,   0.00000  )

     Band symmetry, C_2v (mm2)  point group:

     e(  1 -  1) =    -38.51568  eV     1   --> A_1  D_1  S_1  
     e(  2 -  2) =    -12.78490  eV     1   --> B_2  D_4  S_4  
     e(  3 -  3) =    -12.26422  eV     1   --> A_1  D_1  S_1  
     e(  4 -  4) =    -12.24312  eV     1   --> B_1  D_3  S_3  
     e(  5 -  5) =      7.40679  eV     1   --> A_1  D_1  S_1  
     e(  6 -  6) =     17.42648  eV     1   --> A_1  D_1  S_1  
     e(  7 -  7) =     17.60379  eV     1   --> A_1  D_1  S_1  
     e(  8 -  8) =     17.76296  eV     1   --> B_1  D_3  S_3  
     e(  9 -  9) =     19.37438  eV     1   --> B_2  D_4  S_4  
     e( 10 - 10) =     23.59500  eV     1   --> A_2  D_2  S_2  
     e( 11 - 11) =     23.82841  eV     1   --> B_2  D_4  S_4  
     e( 12 - 12) =     25.95728  eV     1   --> A_1  D_1  S_1  
     e( 13 - 13) =     26.02342  eV     1   --> B_1  D_3  S_3  
     e( 14 - 14) =     28.64991  eV     1   --> A_1  D_1  S_1  
     e( 15 - 15) =     28.75543  eV     1   --> B_1  D_3  S_3  
     e( 16 - 16) =     29.44560  eV     1   --> A_1  D_1  S_1  
     e( 17 - 17) =     32.16058  eV     1   --> B_2  D_4  S_4  
     e( 18 - 18) =     34.40323  eV     1   --> A_1  D_1  S_1  
     e( 19 - 19) =     41.11285  eV     1   --> A_2  D_2  S_2  
     e( 20 - 20) =     41.40233  eV     1   --> B_2  D_4  S_4  

 **************************************************************************

 **************************************************************************

                    xk=(   0.00000,   0.07217,   0.00000  )

     Band symmetry, C_2v (mm2)  point group:

     e(  1 -  1) =    -38.51376  eV     1   --> A_1  D_1  S_1  
     e(  2 -  2) =    -12.78238  eV     1   --> B_2  D_4  S_4  
     e(  3 -  3) =    -12.27927  eV     1   --> A_1  D_1  S_1  
     e(  4 -  4) =    -12.24649  eV     1   --> B_1  D_3  S_3  
     e(  5 -  5) =      7.44009  eV     1   --> A_1  D_1  S_1  
     e(  6 -  6) =     17.45207  eV     1   --> A_1  D_1  S_1  
     e(  7 -  7) =     17.53640  eV     1   --> A_1  D_1  S_1  
     e(  8 -  8) =     17.78095  eV     1   --> B_1  D_3  S_3  
     e(  9 -  9) =     19.29399  eV     1   --> B_2  D_4  S_4  
     e( 10 - 10) =     23.57875  eV     1   --> A_2  D_2  S_2  
     e( 11 - 11) =     23.93526  eV     1   --> B_2  D_4  S_4  
     e( 12 - 12) =     25.78390  eV     1   --> A_1  D_1  S_1  
     e( 13 - 13) =     25.88592  eV     1   --> B_1  D_3  S_3  
     e( 14 - 14) =     28.80952  eV     1   --> A_1  D_1  S_1  
     e( 15 - 15) =     28.97218  eV     1   --> B_1  D_3  S_3  
     e( 16 - 16) =     29.56393  eV     1   --> A_1  D_1  S_1  
     e( 17 - 17) =     32.03474  eV     1   --> B_2  D_4  S_4  
     e( 18 - 18) =     34.42582  eV     1   --> A_1  D_1  S_1  
     e( 19 - 19) =     41.18079  eV     1   --> A_2  D_2  S_2  
     e( 20 - 20) =     41.62232  eV     1   --> B_2  D_4  S_4  

 **************************************************************************

 **************************************************************************

                    xk=(   0.00000,   0.08660,   0.00000  )

     Band symmetry, C_2v (mm2)  point group:

     e(  1 -  1) =    -38.51144  eV     1   --> A_1  D_1  S_1  
     e(  2 -  2) =    -12.77933  eV     1   --> B_2  D_4  S_4  
     e(  3 -  3) =    -12.29744  eV     1   --> A_1  D_1  S_1  
     e(  4 -  4) =    -12.25057  eV     1   --> B_1  D_3  S_3  
     e(  5 -  5) =      7.48056  eV     1   --> A_1  D_1  S_1  
     e(  6 -  6) =     17.44659  eV     1   --> A_1  D_1  S_1  
     e(  7 -  7) =     17.49211  eV     1   --> A_1  D_1  S_1  
     e(  8 -  8) =     17.80237  eV     1   --> B_1  D_3  S_3  
     e(  9 -  9) =     19.20145  eV     1   --> B_2  D_4  S_4  
     e( 10 - 10) =     23.55918  eV     1   --> A_2  D_2  S_2  
     e( 11 - 11) =     24.05919  eV     1   --> B_2  D_4  S_4  
     e( 12 - 12) =     25.59982  eV     1   --> A_1  D_1  S_1  
     e( 13 - 13) =     25.74337  eV     1   --> B_1  D_3  S_3  
     e( 14 - 14) =     28.97694  eV     1   --> A_1  D_1  S_1  
     e( 15 - 15) =     29.21226  eV     1   --> B_1  D_3  S_3  
     e( 16 - 16) =     29.70510  eV     1   --> A_1  D_1  S_1  
     e( 17 - 17) =     31.89099  eV     1   --> B_2  D_4  S_4  
     e( 18 - 18) =     34.45246  eV     1   --> A_1  D_1  S_1  
     e( 19 - 19) =     41.26349  eV     1   --> A_2  D_2  S_2  
     e( 20 - 20) =     41.88144  eV     1   --> B_2  D_4  S_4  

 **************************************************************************

 **************************************************************************

                    xk=(   0.00000,   0.10104,   0.00000  )

     Band symmetry, C_2v (mm2)  point group:

     e(  1 -  1) =    -38.50874  eV     1   --> A_1  D_1  S_1  
     e(  2 -  2) =    -12.77578  eV     1   --> B_2  D_4  S_4  
     e(  3 -  3) =    -12.31860  eV     1   --> A_1  D_1  S_1  
     e(  4 -  4) =    -12.25532  eV     1   --> B_1  D_3  S_3  
     e(  5 -  5) =      7.52805  eV     1   --> A_1  D_1  S_1  
     e(  6 -  6) =     17.35581  eV     1   --> A_1  D_1  S_1  
     e(  7 -  7) =     17.52484  eV     1   --> A_1  D_1  S_1  
     e(  8 -  8) =     17.82684  eV     1   --> B_1  D_3  S_3  
     e(  9 -  9) =     19.09910  eV     1   --> B_2  D_4  S_4  
     e( 10 - 10) =     23.53647  eV     1   --> A_2  D_2  S_2  
     e( 11 - 11) =     24.19724  eV     1   --> B_2  D_4  S_4  
     e( 12 - 12) =     25.40883  eV     1   --> A_1  D_1  S_1  
     e( 13 - 13) =     25.60052  eV     1   --> B_1  D_3  S_3  
     e( 14 - 14) =     29.14853  eV     1   --> A_1  D_1  S_1  
     e( 15 - 15) =     29.46966  eV     1   --> B_1  D_3  S_3  
     e( 16 - 16) =     29.86750  eV     1   --> A_1  D_1  S_1  
     e( 17 - 17) =     31.73366  eV     1   --> B_2  D_4  S_4  
     e( 18 - 18) =     34.48240  eV     1   --> A_1  D_1  S_1  
     e( 19 - 19) =     41.36051  eV     1   --> A_2  D_2  S_2  
     e( 20 - 20) =     42.17557  eV     1   --> B_2  D_4  S_4  

 **************************************************************************

 **************************************************************************

                    xk=(   0.00000,   0.11547,   0.00000  )

     Band symmetry, C_2v (mm2)  point group:

     e(  1 -  1) =    -38.50567  eV     1   --> A_1  D_1  S_1  
     e(  2 -  2) =    -12.77173  eV     1   --> B_2  D_4  S_4  
     e(  3 -  3) =    -12.34258  eV     1   --> A_1  D_1  S_1  
     e(  4 -  4) =    -12.26073  eV     1   --> B_1  D_3  S_3  
     e(  5 -  5) =      7.58230  eV     1   --> A_1  D_1  S_1  
     e(  6 -  6) =     17.25051  eV     1   --> A_1  D_1  S_1  
     e(  7 -  7) =     17.56497  eV     1   --> A_1  D_1  S_1  
     e(  8 -  8) =     17.85415  eV     1   --> B_1  D_3  S_3  
     e(  9 -  9) =     18.98915  eV     1   --> B_2  D_4  S_4  
     e( 10 - 10) =     23.51080  eV     1   --> A_2  D_2  S_2  
     e( 11 - 11) =     24.34643  eV     1   --> B_2  D_4  S_4  
     e( 12 - 12) =     25.21640  eV     1   --> A_1  D_1  S_1  
     e( 13 - 13) =     25.46083  eV     1   --> B_1  D_3  S_3  
     e( 14 - 14) =     29.31988  eV     1   --> A_1  D_1  S_1  
     e( 15 - 15) =     29.74181  eV     1   --> B_1  D_3  S_3  
     e( 16 - 16) =     30.05044  eV     1   --> A_1  D_1  S_1  
     e( 17 - 17) =     31.56736  eV     1   --> B_2  D_4  S_4  
     e( 18 - 18) =     34.51367  eV     1   --> A_1  D_1  S_1  
     e( 19 - 19) =     41.47169  eV     1   --> A_2  D_2  S_2  
     e( 20 - 20) =     42.50059  eV     1   --> B_2  D_4  S_4  

 **************************************************************************

 **************************************************************************

                    xk=(   0.00000,   0.12990,   0.00000  )

     Band symmetry, C_2v (mm2)  point group:

     e(  1 -  1) =    -38.50225  eV     1   --> A_1  D_1  S_1  
     e(  2 -  2) =    -12.76722  eV     1   --> B_2  D_4  S_4  
     e(  3 -  3) =    -12.36921  eV     1   --> A_1  D_1  S_1  
     e(  4 -  4) =    -12.26674  eV     1   --> B_1  D_3  S_3  
     e(  5 -  5) =      7.64343  eV     1   --> A_1  D_1  S_1  
     e(  6 -  6) =     17.13493  eV     1   --> A_1  D_1  S_1  
     e(  7 -  7) =     17.60868  eV     1   --> A_1  D_1  S_1  
     e(  8 -  8) =     17.88391  eV     1   --> B_1  D_3  S_3  
     e(  9 -  9) =     18.87354  eV     1   --> B_2  D_4  S_4  
     e( 10 - 10) =     23.48240  eV     1   --> A_2  D_2  S_2  
     e( 11 - 11) =     24.50386  eV     1   --> B_2  D_4  S_4  
     e( 12 - 12) =     25.02620  eV     1   --> A_1  D_1  S_1  
     e( 13 - 13) =     25.32663  eV     1   --> B_1  D_3  S_3  
     e( 14 - 14) =     29.48849  eV     1   --> A_1  D_1  S_1  
     e( 15 - 15) =     30.02660  eV     1   --> B_1  D_3  S_3  
     e( 16 - 16) =     30.25317  eV     1   --> A_1  D_1  S_1  
     e( 17 - 17) =     31.39642  eV     1   --> B_2  D_4  S_4  
     e( 18 - 18) =     34.54768  eV     1   --> A_1  D_1  S_1  
     e( 19 - 19) =     41.59672  eV     1   --> A_2  D_2  S_2  
     e( 20 - 20) =     42.85261  eV     1   --> B_2  D_4  S_4  

 **************************************************************************

 **************************************************************************

                    xk=(   0.00000,   0.14434,   0.00000  )

     Band symmetry, C_2v (mm2)  point group:

     e(  1 -  1) =    -38.49849  eV     1   --> A_1  D_1  S_1  
     e(  2 -  2) =    -12.76227  eV     1   --> B_2  D_4  S_4  
     e(  3 -  3) =    -12.39831  eV     1   --> A_1  D_1  S_1  
     e(  4 -  4) =    -12.27332  eV     1   --> B_1  D_3  S_3  
     e(  5 -  5) =      7.71112  eV     1   --> A_1  D_1  S_1  
     e(  6 -  6) =     17.01047  eV     1   --> A_1  D_1  S_1  
     e(  7 -  7) =     17.65481  eV     1   --> A_1  D_1  S_1  
     e(  8 -  8) =     17.91571  eV     1   --> B_1  D_3  S_3  
     e(  9 -  9) =     18.75397  eV     1   --> B_2  D_4  S_4  
     e( 10 - 10) =     23.45149  eV     1   --> A_2  D_2  S_2  
     e( 11 - 11) =     24.66664  eV     1   --> B_2  D_4  S_4  
     e( 12 - 12) =     24.84101  eV     1   --> A_1  D_1  S_1  
     e( 13 - 13) =     25.19960  eV     1   --> B_1  D_3  S_3  
     e( 14 - 14) =     29.65132  eV     1   --> A_1  D_1  S_1  
     e( 15 - 15) =     30.32242  eV     1   --> B_1  D_3  S_3  
     e( 16 - 16) =     30.47492  eV     1   --> A_1  D_1  S_1  
     e( 17 - 17) =     31.22497  eV     1   --> B_2  D_4  S_4  
     e( 18 - 18) =     34.58220  eV     1   --> A_1  D_1  S_1  
     e( 19 - 19) =     41.73526  eV     1   --> A_2  D_2  S_2  
     e( 20 - 20) =     43.22795  eV     1   --> B_2  D_4  S_4  

 **************************************************************************

 **************************************************************************

                    xk=(   0.00000,   0.15877,   0.00000  )

     Band symmetry, C_2v (mm2)  point group:

     e(  1 -  1) =    -38.49441  eV     1   --> A_1  D_1  S_1  
     e(  2 -  2) =    -12.75690  eV     1   --> B_2  D_4  S_4  
     e(  3 -  3) =    -12.42966  eV     1   --> A_1  D_1  S_1  
     e(  4 -  4) =    -12.28044  eV     1   --> B_1  D_3  S_3  
     e(  5 -  5) =      7.78524  eV     1   --> A_1  D_1  S_1  
     e(  6 -  6) =     16.87833  eV     1   --> A_1  D_1  S_1  
     e(  7 -  7) =     17.70227  eV     1   --> A_1  D_1  S_1  
     e(  8 -  8) =     17.94907  eV     1   --> B_1  D_3  S_3  
     e(  9 -  9) =     18.63217  eV     1   --> B_2  D_4  S_4  
     e( 10 - 10) =     23.41833  eV     1   --> A_2  D_2  S_2  
     e( 11 - 11) =     24.66366  eV     1   --> A_1  D_1  S_1  
     e( 12 - 12) =     24.83199  eV     1   --> B_2  D_4  S_4  
     e( 13 - 13) =     25.08101  eV     1   --> B_1  D_3  S_3  
     e( 14 - 14) =     29.80732  eV     1   --> A_1  D_1  S_1  
     e( 15 - 15) =     30.62811  eV     1   --> B_1  D_3  S_3  
     e( 16 - 16) =     30.71477  eV     1   --> A_1  D_1  S_1  
     e( 17 - 17) =     31.05701  eV     1   --> B_2  D_4  S_4  
     e( 18 - 18) =     34.61592  eV     1   --> A_1  D_1  S_1  
     e( 19 - 19) =     41.88693  eV     1   --> A_2  D_2  S_2  
     e( 20 - 20) =     43.62344  eV     1   --> B_2  D_4  S_4  

 **************************************************************************

 **************************************************************************

                    xk=(   0.00000,   0.17321,   0.00000  )

     Band symmetry, C_2v (mm2)  point group:

     e(  1 -  1) =    -38.49006  eV     1   --> A_1  D_1  S_1  
     e(  2 -  2) =    -12.75116  eV     1   --> B_2  D_4  S_4  
     e(  3 -  3) =    -12.46306  eV     1   --> A_1  D_1  S_1  
     e(  4 -  4) =    -12.28803  eV     1   --> B_1  D_3  S_3  
     e(  5 -  5) =      7.86536  eV     1   --> A_1  D_1  S_1  
     e(  6 -  6) =     16.73992  eV     1   --> A_1  D_1  S_1  
     e(  7 -  7) =     17.74986  eV     1   --> A_1  D_1  S_1  
     e(  8 -  8) =     17.98355  eV     1   --> B_1  D_3  S_3  
     e(  9 -  9) =     18.50880  eV     1   --> B_2  D_4  S_4  
     e( 10 - 10) =     23.38318  eV     1   --> A_2  D_2  S_2  
     e( 11 - 11) =     24.49609  eV     1   --> A_1  D_1  S_1  
     e( 12 - 12) =     24.97182  eV     1   --> B_1  D_3  S_3  
     e( 13 - 13) =     24.99672  eV     1   --> B_2  D_4  S_4  
     e( 14 - 14) =     29.95474  eV     1   --> A_1  D_1  S_1  
     e( 15 - 15) =     30.89641  eV     1   --> B_2  D_4  S_4  
     e( 16 - 16) =     30.94222  eV     1   --> B_1  D_3  S_3  
     e( 17 - 17) =     30.97155  eV     1   --> A_1  D_1  S_1  
     e( 18 - 18) =     34.64648  eV     1   --> A_1  D_1  S_1  
     e( 19 - 19) =     42.05130  eV     1   --> A_2  D_2  S_2  
     e( 20 - 20) =     44.03499  eV     1   --> B_2  D_4  S_4  

 **************************************************************************

 **************************************************************************

                    xk=(   0.00000,   0.18764,   0.00000  )

     Band symmetry, C_2v (mm2)  point group:

     e(  1 -  1) =    -38.48544  eV     1   --> A_1  D_1  S_1  
     e(  2 -  2) =    -12.74508  eV     1   --> B_2  D_4  S_4  
     e(  3 -  3) =    -12.49825  eV     1   --> A_1  D_1  S_1  
     e(  4 -  4) =    -12.29606  eV     1   --> B_1  D_3  S_3  
     e(  5 -  5) =      7.95155  eV     1   --> A_1  D_1  S_1  
     e(  6 -  6) =     16.59584  eV     1   --> A_1  D_1  S_1  
     e(  7 -  7) =     17.79632  eV     1   --> A_1  D_1  S_1  
     e(  8 -  8) =     18.01876  eV     1   --> B_1  D_3  S_3  
     e(  9 -  9) =     18.38521  eV     1   --> B_2  D_4  S_4  
     e( 10 - 10) =     23.34630  eV     1   --> A_2  D_2  S_2  
     e( 11 - 11) =     24.34118  eV     1   --> A_1  D_1  S_1  
     e( 12 - 12) =     24.87289  eV     1   --> B_1  D_3  S_3  
     e( 13 - 13) =     25.15786  eV     1   --> B_2  D_4  S_4  
     e( 14 - 14) =     30.09108  eV     1   --> A_1  D_1  S_1  
     e( 15 - 15) =     30.74703  eV     1   --> B_2  D_4  S_4  
     e( 16 - 16) =     31.24397  eV     1   --> A_1  D_1  S_1  
     e( 17 - 17) =     31.26583  eV     1   --> B_1  D_3  S_3  
     e( 18 - 18) =     34.67407  eV     1   --> A_1  D_1  S_1  
     e( 19 - 19) =     42.22795  eV     1   --> A_2  D_2  S_2  
     e( 20 - 20) =     44.45938  eV     1   --> B_2  D_4  S_4  

 **************************************************************************

 **************************************************************************

                    xk=(   0.00000,   0.20207,   0.00000  )

     Band symmetry, C_2v (mm2)  point group:

     e(  1 -  1) =    -38.48060  eV     1   --> A_1  D_1  S_1  
     e(  2 -  2) =    -12.73868  eV     1   --> B_2  D_4  S_4  
     e(  3 -  3) =    -12.53502  eV     1   --> A_1  D_1  S_1  
     e(  4 -  4) =    -12.30448  eV     1   --> B_1  D_3  S_3  
     e(  5 -  5) =      8.04256  eV     1   --> A_1  D_1  S_1  
     e(  6 -  6) =     16.44661  eV     1   --> A_1  D_1  S_1  
     e(  7 -  7) =     17.84022  eV     1   --> A_1  D_1  S_1  
     e(  8 -  8) =     18.05383  eV     1   --> B_1  D_3  S_3  
     e(  9 -  9) =     18.26224  eV     1   --> B_2  D_4  S_4  
     e( 10 - 10) =     23.30796  eV     1   --> A_2  D_2  S_2  
     e( 11 - 11) =     24.19977  eV     1   --> A_1  D_1  S_1  
     e( 12 - 12) =     24.78473  eV     1   --> B_1  D_3  S_3  
     e( 13 - 13) =     25.31213  eV     1   --> B_2  D_4  S_4  
     e( 14 - 14) =     30.21701  eV     1   --> A_1  D_1  S_1  
     e( 15 - 15) =     30.61273  eV     1   --> B_2  D_4  S_4  
     e( 16 - 16) =     31.53025  eV     1   --> A_1  D_1  S_1  
     e( 17 - 17) =     31.59636  eV     1   --> B_1  D_3  S_3  
     e( 18 - 18) =     34.69451  eV     1   --> A_1  D_1  S_1  
     e( 19 - 19) =     42.41639  eV     1   --> A_2  D_2  S_2  
     e( 20 - 20) =     44.89264  eV     1   --> B_2  D_4  S_4  

 **************************************************************************

 **************************************************************************

                    xk=(   0.00000,   0.21651,   0.00000  )

     Band symmetry, C_2v (mm2)  point group:

     e(  1 -  1) =    -38.47554  eV     1   --> A_1  D_1  S_1  
     e(  2 -  2) =    -12.73202  eV     1   --> B_2  D_4  S_4  
     e(  3 -  3) =    -12.57311  eV     1   --> A_1  D_1  S_1  
     e(  4 -  4) =    -12.31322  eV     1   --> B_1  D_3  S_3  
     e(  5 -  5) =      8.13952  eV     1   --> A_1  D_1  S_1  
     e(  6 -  6) =     16.29435  eV     1   --> A_1  D_1  S_1  
     e(  7 -  7) =     17.88016  eV     1   --> A_1  D_1  S_1  
     e(  8 -  8) =     18.08838  eV     1   --> B_1  D_3  S_3  
     e(  9 -  9) =     18.14075  eV     1   --> B_2  D_4  S_4  
     e( 10 - 10) =     23.26844  eV     1   --> A_2  D_2  S_2  
     e( 11 - 11) =     24.07562  eV     1   --> A_1  D_1  S_1  
     e( 12 - 12) =     24.70790  eV     1   --> B_1  D_3  S_3  
     e( 13 - 13) =     25.45619  eV     1   --> B_2  D_4  S_4  
     e( 14 - 14) =     30.33314  eV     1   --> A_1  D_1  S_1  
     e( 15 - 15) =     30.49818  eV     1   --> B_2  D_4  S_4  
     e( 16 - 16) =     31.82823  eV     1   --> A_1  D_1  S_1  
     e( 17 - 17) =     31.93392  eV     1   --> B_1  D_3  S_3  
     e( 18 - 18) =     34.70918  eV     1   --> A_1  D_1  S_1  
     e( 19 - 19) =     42.61618  eV     1   --> A_2  D_2  S_2  
     e( 20 - 20) =     45.32971  eV     1   --> B_2  D_4  S_4  

 **************************************************************************

 **************************************************************************

                    xk=(   0.00000,   0.23094,   0.00000  )

     Band symmetry, C_2v (mm2)  point group:

     e(  1 -  1) =    -38.47032  eV     1   --> A_1  D_1  S_1  
     e(  2 -  2) =    -12.72513  eV     1   --> B_2  D_4  S_4  
     e(  3 -  3) =    -12.61227  eV     1   --> A_1  D_1  S_1  
     e(  4 -  4) =    -12.32223  eV     1   --> B_1  D_3  S_3  
     e(  5 -  5) =      8.24203  eV     1   --> A_1  D_1  S_1  
     e(  6 -  6) =     16.13842  eV     1   --> A_1  D_1  S_1  
     e(  7 -  7) =     17.91467  eV     1   --> A_1  D_1  S_1  
     e(  8 -  8) =     18.02120  eV     1   --> B_2  D_4  S_4  
     e(  9 -  9) =     18.12205  eV     1   --> B_1  D_3  S_3  
     e( 10 - 10) =     23.22803  eV     1   --> A_2  D_2  S_2  
     e( 11 - 11) =     23.96958  eV     1   --> A_1  D_1  S_1  
     e( 12 - 12) =     24.64273  eV     1   --> B_1  D_3  S_3  
     e( 13 - 13) =     25.58666  eV     1   --> B_2  D_4  S_4  
     e( 14 - 14) =     30.40561  eV     1   --> B_2  D_4  S_4  
     e( 15 - 15) =     30.44020  eV     1   --> A_1  D_1  S_1  
     e( 16 - 16) =     32.13839  eV     1   --> A_1  D_1  S_1  
     e( 17 - 17) =     32.27828  eV     1   --> B_1  D_3  S_3  
     e( 18 - 18) =     34.71539  eV     1   --> A_1  D_1  S_1  
     e( 19 - 19) =     42.82669  eV     1   --> A_2  D_2  S_2  
     e( 20 - 20) =     45.54971  eV     1   --> A_1  D_1  S_1  

 **************************************************************************

 **************************************************************************

                    xk=(   0.00000,   0.24537,   0.00000  )

     Band symmetry, C_2v (mm2)  point group:

     e(  1 -  1) =    -38.46495  eV     1   --> A_1  D_1  S_1  
     e(  2 -  2) =    -12.71805  eV     1   --> B_2  D_4  S_4  
     e(  3 -  3) =    -12.65225  eV     1   --> A_1  D_1  S_1  
     e(  4 -  4) =    -12.33146  eV     1   --> B_1  D_3  S_3  
     e(  5 -  5) =      8.34947  eV     1   --> A_1  D_1  S_1  
     e(  6 -  6) =     15.97958  eV     1   --> A_1  D_1  S_1  
     e(  7 -  7) =     17.90418  eV     1   --> B_2  D_4  S_4  
     e(  8 -  8) =     17.94234  eV     1   --> A_1  D_1  S_1  
     e(  9 -  9) =     18.15430  eV     1   --> B_1  D_3  S_3  
     e( 10 - 10) =     23.18699  eV     1   --> A_2  D_2  S_2  
     e( 11 - 11) =     23.88378  eV     1   --> A_1  D_1  S_1  
     e( 12 - 12) =     24.58944  eV     1   --> B_1  D_3  S_3  
     e( 13 - 13) =     25.70013  eV     1   --> B_2  D_4  S_4  
     e( 14 - 14) =     30.33907  eV     1   --> B_2  D_4  S_4  
     e( 15 - 15) =     30.53616  eV     1   --> A_1  D_1  S_1  
     e( 16 - 16) =     32.45774  eV     1   --> A_1  D_1  S_1  
     e( 17 - 17) =     32.62888  eV     1   --> B_1  D_3  S_3  
     e( 18 - 18) =     34.71096  eV     1   --> A_1  D_1  S_1  
     e( 19 - 19) =     43.04740  eV     1   --> A_2  D_2  S_2  
     e( 20 - 20) =     45.47274  eV     1   --> A_1  D_1  S_1  

 **************************************************************************

 **************************************************************************

                    xk=(   0.00000,   0.25981,   0.00000  )

     Band symmetry, C_2v (mm2)  point group:

     e(  1 -  1) =    -38.45949  eV     1   --> A_1  D_1  S_1  
     e(  2 -  2) =    -12.71083  eV     1   --> B_2  D_4  S_4  
     e(  3 -  3) =    -12.69278  eV     1   --> A_1  D_1  S_1  
     e(  4 -  4) =    -12.34085  eV     1   --> B_1  D_3  S_3  
     e(  5 -  5) =      8.46133  eV     1   --> A_1  D_1  S_1  
     e(  6 -  6) =     15.81868  eV     1   --> A_1  D_1  S_1  
     e(  7 -  7) =     17.79004  eV     1   --> B_2  D_4  S_4  
     e(  8 -  8) =     17.96188  eV     1   --> A_1  D_1  S_1  
     e(  9 -  9) =     18.18427  eV     1   --> B_1  D_3  S_3  
     e( 10 - 10) =     23.14559  eV     1   --> A_2  D_2  S_2  
     e( 11 - 11) =     23.81962  eV     1   --> A_1  D_1  S_1  
     e( 12 - 12) =     24.54775  eV     1   --> B_1  D_3  S_3  
     e( 13 - 13) =     25.79370  eV     1   --> B_2  D_4  S_4  
     e( 14 - 14) =     30.30056  eV     1   --> B_2  D_4  S_4  
     e( 15 - 15) =     30.62226  eV     1   --> A_1  D_1  S_1  
     e( 16 - 16) =     32.78228  eV     1   --> A_1  D_1  S_1  
     e( 17 - 17) =     32.98523  eV     1   --> B_1  D_3  S_3  
     e( 18 - 18) =     34.69444  eV     1   --> A_1  D_1  S_1  
     e( 19 - 19) =     43.27760  eV     1   --> A_2  D_2  S_2  
     e( 20 - 20) =     45.36847  eV     1   --> A_1  D_1  S_1  

 **************************************************************************

 **************************************************************************

                    xk=(   0.00000,   0.27424,   0.00000  )

     Band symmetry, C_2v (mm2)  point group:

     e(  1 -  1) =    -38.45393  eV     1   --> A_1  D_1  S_1  
     e(  2 -  2) =    -12.73361  eV     1   --> A_1  D_1  S_1  
     e(  3 -  3) =    -12.70351  eV     1   --> B_2  D_4  S_4  
     e(  4 -  4) =    -12.35034  eV     1   --> B_1  D_3  S_3  
     e(  5 -  5) =      8.57811  eV     1   --> A_1  D_1  S_1  
     e(  6 -  6) =     15.65638  eV     1   --> A_1  D_1  S_1  
     e(  7 -  7) =     17.67977  eV     1   --> B_2  D_4  S_4  
     e(  8 -  8) =     17.97237  eV     1   --> A_1  D_1  S_1  
     e(  9 -  9) =     18.21252  eV     1   --> B_1  D_3  S_3  
     e( 10 - 10) =     23.10411  eV     1   --> A_2  D_2  S_2  
     e( 11 - 11) =     23.77936  eV     1   --> A_1  D_1  S_1  
     e( 12 - 12) =     24.51862  eV     1   --> B_1  D_3  S_3  
     e( 13 - 13) =     25.86587  eV     1   --> B_2  D_4  S_4  
     e( 14 - 14) =     30.29462  eV     1   --> B_2  D_4  S_4  
     e( 15 - 15) =     30.69952  eV     1   --> A_1  D_1  S_1  
     e( 16 - 16) =     33.11492  eV     1   --> A_1  D_1  S_1  
     e( 17 - 17) =     33.34824  eV     1   --> B_1  D_3  S_3  
     e( 18 - 18) =     34.66635  eV     1   --> A_1  D_1  S_1  
     e( 19 - 19) =     43.51733  eV     1   --> A_2  D_2  S_2  
     e( 20 - 20) =     45.24119  eV     1   --> A_1  D_1  S_1  

 **************************************************************************

 **************************************************************************

                    xk=(   0.00000,   0.28868,   0.00000  )

     Band symmetry, C_2v (mm2)  point group:

     e(  1 -  1) =    -38.44834  eV     1   --> A_1  D_1  S_1  
     e(  2 -  2) =    -12.77449  eV     1   --> A_1  D_1  S_1  
     e(  3 -  3) =    -12.69613  eV     1   --> B_2  D_4  S_4  
     e(  4 -  4) =    -12.35987  eV     1   --> B_1  D_3  S_3  
     e(  5 -  5) =      8.69896  eV     1   --> A_1  D_1  S_1  
     e(  6 -  6) =     15.49313  eV     1   --> A_1  D_1  S_1  
     e(  7 -  7) =     17.57282  eV     1   --> B_2  D_4  S_4  
     e(  8 -  8) =     17.97307  eV     1   --> A_1  D_1  S_1  
     e(  9 -  9) =     18.23872  eV     1   --> B_1  D_3  S_3  
     e( 10 - 10) =     23.06279  eV     1   --> A_2  D_2  S_2  
     e( 11 - 11) =     23.76313  eV     1   --> A_1  D_1  S_1  
     e( 12 - 12) =     24.50126  eV     1   --> B_1  D_3  S_3  
     e( 13 - 13) =     25.91488  eV     1   --> B_2  D_4  S_4  
     e( 14 - 14) =     30.32127  eV     1   --> B_2  D_4  S_4  
     e( 15 - 15) =     30.76813  eV     1   --> A_1  D_1  S_1  
     e( 16 - 16) =     33.45034  eV     1   --> A_1  D_1  S_1  
     e( 17 - 17) =     33.71500  eV     1   --> B_1  D_3  S_3  
     e( 18 - 18) =     34.62737  eV     1   --> A_1  D_1  S_1  
     e( 19 - 19) =     43.76531  eV     1   --> A_2  D_2  S_2  
     e( 20 - 20) =     45.09215  eV     1   --> A_1  D_1  S_1  

 **************************************************************************

 **************************************************************************

                    xk=(   0.00000,   0.30311,   0.00000  )

     Band symmetry, C_2v (mm2)  point group:

     e(  1 -  1) =    -38.44275  eV     1   --> A_1  D_1  S_1  
     e(  2 -  2) =    -12.81516  eV     1   --> A_1  D_1  S_1  
     e(  3 -  3) =    -12.68874  eV     1   --> B_2  D_4  S_4  
     e(  4 -  4) =    -12.36938  eV     1   --> B_1  D_3  S_3  
     e(  5 -  5) =      8.82372  eV     1   --> A_1  D_1  S_1  
     e(  6 -  6) =     15.32885  eV     1   --> A_1  D_1  S_1  
     e(  7 -  7) =     17.46982  eV     1   --> B_2  D_4  S_4  
     e(  8 -  8) =     17.96368  eV     1   --> A_1  D_1  S_1  
     e(  9 -  9) =     18.26165  eV     1   --> B_1  D_3  S_3  
     e( 10 - 10) =     23.02188  eV     1   --> A_2  D_2  S_2  
     e( 11 - 11) =     23.77152  eV     1   --> A_1  D_1  S_1  
     e( 12 - 12) =     24.49500  eV     1   --> B_1  D_3  S_3  
     e( 13 - 13) =     25.94075  eV     1   --> B_2  D_4  S_4  
     e( 14 - 14) =     30.37926  eV     1   --> B_2  D_4  S_4  
     e( 15 - 15) =     30.82565  eV     1   --> A_1  D_1  S_1  
     e( 16 - 16) =     33.78130  eV     1   --> A_1  D_1  S_1  
     e( 17 - 17) =     34.08618  eV     1   --> B_1  D_3  S_3  
     e( 18 - 18) =     34.58166  eV     1   --> A_1  D_1  S_1  
     e( 19 - 19) =     44.02037  eV     1   --> A_2  D_2  S_2  
     e( 20 - 20) =     44.92555  eV     1   --> A_1  D_1  S_1  

 **************************************************************************

 **************************************************************************

                    xk=(   0.00000,   0.31754,   0.00000  )

     Band symmetry, C_2v (mm2)  point group:

     e(  1 -  1) =    -38.43719  eV     1   --> A_1  D_1  S_1  
     e(  2 -  2) =    -12.85539  eV     1   --> A_1  D_1  S_1  
     e(  3 -  3) =    -12.68139  eV     1   --> B_2  D_4  S_4  
     e(  4 -  4) =    -12.37882  eV     1   --> B_1  D_3  S_3  
     e(  5 -  5) =      8.95134  eV     1   --> A_1  D_1  S_1  
     e(  6 -  6) =     15.16409  eV     1   --> A_1  D_1  S_1  
     e(  7 -  7) =     17.37104  eV     1   --> B_2  D_4  S_4  
     e(  8 -  8) =     17.94433  eV     1   --> A_1  D_1  S_1  
     e(  9 -  9) =     18.28156  eV     1   --> B_1  D_3  S_3  
     e( 10 - 10) =     22.98163  eV     1   --> A_2  D_2  S_2  
     e( 11 - 11) =     23.80442  eV     1   --> A_1  D_1  S_1  
     e( 12 - 12) =     24.49933  eV     1   --> B_1  D_3  S_3  
     e( 13 - 13) =     25.94528  eV     1   --> B_2  D_4  S_4  
     e( 14 - 14) =     30.46723  eV     1   --> B_2  D_4  S_4  
     e( 15 - 15) =     30.87371  eV     1   --> A_1  D_1  S_1  
     e( 16 - 16) =     34.08147  eV     1   --> A_1  D_1  S_1  
     e( 17 - 17) =     34.45996  eV     1   --> B_1  D_3  S_3  
     e( 18 - 18) =     34.55411  eV     1   --> A_1  D_1  S_1  
     e( 19 - 19) =     44.28210  eV     1   --> A_2  D_2  S_2  
     e( 20 - 20) =     44.74419  eV     1   --> A_1  D_1  S_1  

 **************************************************************************

 **************************************************************************

                    xk=(   0.00000,   0.33198,   0.00000  )

     Band symmetry, C_2v (mm2)  point group:

     e(  1 -  1) =    -38.43168  eV     1   --> A_1  D_1  S_1  
     e(  2 -  2) =    -12.89492  eV     1   --> A_1  D_1  S_1  
     e(  3 -  3) =    -12.67412  eV     1   --> B_2  D_4  S_4  
     e(  4 -  4) =    -12.38812  eV     1   --> B_1  D_3  S_3  
     e(  5 -  5) =      9.08331  eV     1   --> A_1  D_1  S_1  
     e(  6 -  6) =     14.99915  eV     1   --> A_1  D_1  S_1  
     e(  7 -  7) =     17.27742  eV     1   --> B_2  D_4  S_4  
     e(  8 -  8) =     17.91568  eV     1   --> A_1  D_1  S_1  
     e(  9 -  9) =     18.29868  eV     1   --> B_1  D_3  S_3  
     e( 10 - 10) =     22.94226  eV     1   --> A_2  D_2  S_2  
     e( 11 - 11) =     23.86147  eV     1   --> A_1  D_1  S_1  
     e( 12 - 12) =     24.51427  eV     1   --> B_1  D_3  S_3  
     e( 13 - 13) =     25.93164  eV     1   --> B_2  D_4  S_4  
     e( 14 - 14) =     30.58271  eV     1   --> B_2  D_4  S_4  
     e( 15 - 15) =     30.91221  eV     1   --> A_1  D_1  S_1  
     e( 16 - 16) =     34.23307  eV     1   --> A_1  D_1  S_1  
     e( 17 - 17) =     34.66353  eV     1   --> A_1  D_1  S_1  
     e( 18 - 18) =     34.83832  eV     1   --> B_1  D_3  S_3  
     e( 19 - 19) =     44.54980  eV     1   --> A_2  D_2  S_2  
     e( 20 - 20) =     44.55713  eV     1   --> A_1  D_1  S_1  

 **************************************************************************

 **************************************************************************

                    xk=(   0.00000,   0.34641,   0.00000  )

     Band symmetry, C_2v (mm2)  point group:

     e(  1 -  1) =    -38.42627  eV     1   --> A_1  D_1  S_1  
     e(  2 -  2) =    -12.93353  eV     1   --> A_1  D_1  S_1  
     e(  3 -  3) =    -12.66697  eV     1   --> B_2  D_4  S_4  
     e(  4 -  4) =    -12.39723  eV     1   --> B_1  D_3  S_3  
     e(  5 -  5) =      9.21812  eV     1   --> A_1  D_1  S_1  
     e(  6 -  6) =     14.83417  eV     1   --> A_1  D_1  S_1  
     e(  7 -  7) =     17.18770  eV     1   --> B_2  D_4  S_4  
     e(  8 -  8) =     17.87844  eV     1   --> A_1  D_1  S_1  
     e(  9 -  9) =     18.31290  eV     1   --> B_1  D_3  S_3  
     e( 10 - 10) =     22.90399  eV     1   --> A_2  D_2  S_2  
     e( 11 - 11) =     23.94149  eV     1   --> A_1  D_1  S_1  
     e( 12 - 12) =     24.53866  eV     1   --> B_1  D_3  S_3  
     e( 13 - 13) =     25.90142  eV     1   --> B_2  D_4  S_4  
     e( 14 - 14) =     30.72123  eV     1   --> B_2  D_4  S_4  
     e( 15 - 15) =     30.94071  eV     1   --> A_1  D_1  S_1  
     e( 16 - 16) =     34.19451  eV     1   --> A_1  D_1  S_1  
     e( 17 - 17) =     34.94993  eV     1   --> A_1  D_1  S_1  
     e( 18 - 18) =     35.21930  eV     1   --> B_1  D_3  S_3  
     e( 19 - 19) =     44.36516  eV     1   --> A_1  D_1  S_1  
     e( 20 - 20) =     44.49747  eV     1   --> B_1  D_3  S_3  

 **************************************************************************

 **************************************************************************

                    xk=(   0.00000,   0.36084,   0.00000  )

     Band symmetry, C_2v (mm2)  point group:

     e(  1 -  1) =    -38.42100  eV     1   --> A_1  D_1  S_1  
     e(  2 -  2) =    -12.97100  eV     1   --> A_1  D_1  S_1  
     e(  3 -  3) =    -12.66000  eV     1   --> B_2  D_4  S_4  
     e(  4 -  4) =    -12.40610  eV     1   --> B_1  D_3  S_3  
     e(  5 -  5) =      9.35566  eV     1   --> A_1  D_1  S_1  
     e(  6 -  6) =     14.66940  eV     1   --> A_1  D_1  S_1  
     e(  7 -  7) =     17.10279  eV     1   --> B_2  D_4  S_4  
     e(  8 -  8) =     17.83392  eV     1   --> A_1  D_1  S_1  
     e(  9 -  9) =     18.32432  eV     1   --> B_1  D_3  S_3  
     e( 10 - 10) =     22.86702  eV     1   --> A_2  D_2  S_2  
     e( 11 - 11) =     24.04305  eV     1   --> A_1  D_1  S_1  
     e( 12 - 12) =     24.57158  eV     1   --> B_1  D_3  S_3  
     e( 13 - 13) =     25.85867  eV     1   --> B_2  D_4  S_4  
     e( 14 - 14) =     30.87908  eV     1   --> B_2  D_4  S_4  
     e( 15 - 15) =     30.95878  eV     1   --> A_1  D_1  S_1  
     e( 16 - 16) =     34.09459  eV     1   --> A_1  D_1  S_1  
     e( 17 - 17) =     35.28515  eV     1   --> A_1  D_1  S_1  
     e( 18 - 18) =     35.60216  eV     1   --> B_1  D_3  S_3  
     e( 19 - 19) =     44.09679  eV     1   --> B_1  D_3  S_3  
     e( 20 - 20) =     44.17161  eV     1   --> A_1  D_1  S_1  

 **************************************************************************

 **************************************************************************

                    xk=(   0.00000,   0.37528,   0.00000  )

     Band symmetry, C_2v (mm2)  point group:

     e(  1 -  1) =    -38.41589  eV     1   --> A_1  D_1  S_1  
     e(  2 -  2) =    -13.00711  eV     1   --> A_1  D_1  S_1  
     e(  3 -  3) =    -12.65324  eV     1   --> B_2  D_4  S_4  
     e(  4 -  4) =    -12.41467  eV     1   --> B_1  D_3  S_3  
     e(  5 -  5) =      9.49543  eV     1   --> A_1  D_1  S_1  
     e(  6 -  6) =     14.50506  eV     1   --> A_1  D_1  S_1  
     e(  7 -  7) =     17.02281  eV     1   --> B_2  D_4  S_4  
     e(  8 -  8) =     17.78355  eV     1   --> A_1  D_1  S_1  
     e(  9 -  9) =     18.33302  eV     1   --> B_1  D_3  S_3  
     e( 10 - 10) =     22.83154  eV     1   --> A_2  D_2  S_2  
     e( 11 - 11) =     24.16432  eV     1   --> A_1  D_1  S_1  
     e( 12 - 12) =     24.61179  eV     1   --> B_1  D_3  S_3  
     e( 13 - 13) =     25.80667  eV     1   --> B_2  D_4  S_4  
     e( 14 - 14) =     30.96545  eV     1   --> A_1  D_1  S_1  
     e( 15 - 15) =     31.05209  eV     1   --> B_2  D_4  S_4  
     e( 16 - 16) =     33.97221  eV     1   --> A_1  D_1  S_1  
     e( 17 - 17) =     35.63117  eV     1   --> A_1  D_1  S_1  
     e( 18 - 18) =     35.98470  eV     1   --> B_1  D_3  S_3  
     e( 19 - 19) =     43.71321  eV     1   --> B_1  D_3  S_3  
     e( 20 - 20) =     43.97817  eV     1   --> A_1  D_1  S_1  

 **************************************************************************

 **************************************************************************

                    xk=(   0.00000,   0.38971,   0.00000  )

     Band symmetry, C_2v (mm2)  point group:

     e(  1 -  1) =    -38.41097  eV     1   --> A_1  D_1  S_1  
     e(  2 -  2) =    -13.04166  eV     1   --> A_1  D_1  S_1  
     e(  3 -  3) =    -12.64674  eV     1   --> B_2  D_4  S_4  
     e(  4 -  4) =    -12.42288  eV     1   --> B_1  D_3  S_3  
     e(  5 -  5) =      9.63735  eV     1   --> A_1  D_1  S_1  
     e(  6 -  6) =     14.34138  eV     1   --> A_1  D_1  S_1  
     e(  7 -  7) =     16.94791  eV     1   --> B_2  D_4  S_4  
     e(  8 -  8) =     17.72887  eV     1   --> A_1  D_1  S_1  
     e(  9 -  9) =     18.33938  eV     1   --> B_1  D_3  S_3  
     e( 10 - 10) =     22.79774  eV     1   --> A_2  D_2  S_2  
     e( 11 - 11) =     24.30323  eV     1   --> A_1  D_1  S_1  
     e( 12 - 12) =     24.65837  eV     1   --> B_1  D_3  S_3  
     e( 13 - 13) =     25.74841  eV     1   --> B_2  D_4  S_4  
     e( 14 - 14) =     30.96043  eV     1   --> A_1  D_1  S_1  
     e( 15 - 15) =     31.23617  eV     1   --> B_2  D_4  S_4  
     e( 16 - 16) =     33.83790  eV     1   --> A_1  D_1  S_1  
     e( 17 - 17) =     35.97923  eV     1   --> A_1  D_1  S_1  
     e( 18 - 18) =     36.36833  eV     1   --> B_1  D_3  S_3  
     e( 19 - 19) =     43.34788  eV     1   --> B_1  D_3  S_3  
     e( 20 - 20) =     43.78667  eV     1   --> A_1  D_1  S_1  

 **************************************************************************

 **************************************************************************

                    xk=(   0.00000,   0.40415,   0.00000  )

     Band symmetry, C_2v (mm2)  point group:

     e(  1 -  1) =    -38.40628  eV     1   --> A_1  D_1  S_1  
     e(  2 -  2) =    -13.07445  eV     1   --> A_1  D_1  S_1  
     e(  3 -  3) =    -12.64054  eV     1   --> B_2  D_4  S_4  
     e(  4 -  4) =    -12.43070  eV     1   --> B_1  D_3  S_3  
     e(  5 -  5) =      9.78082  eV     1   --> A_1  D_1  S_1  
     e(  6 -  6) =     14.17864  eV     1   --> A_1  D_1  S_1  
     e(  7 -  7) =     16.87817  eV     1   --> B_2  D_4  S_4  
     e(  8 -  8) =     17.67145  eV     1   --> A_1  D_1  S_1  
     e(  9 -  9) =     18.34359  eV     1   --> B_1  D_3  S_3  
     e( 10 - 10) =     22.76578  eV     1   --> A_2  D_2  S_2  
     e( 11 - 11) =     24.45741  eV     1   --> A_1  D_1  S_1  
     e( 12 - 12) =     24.70986  eV     1   --> B_1  D_3  S_3  
     e( 13 - 13) =     25.68656  eV     1   --> B_2  D_4  S_4  
     e( 14 - 14) =     30.94240  eV     1   --> A_1  D_1  S_1  
     e( 15 - 15) =     31.42739  eV     1   --> B_2  D_4  S_4  
     e( 16 - 16) =     33.69721  eV     1   --> A_1  D_1  S_1  
     e( 17 - 17) =     36.32565  eV     1   --> A_1  D_1  S_1  
     e( 18 - 18) =     36.75053  eV     1   --> B_1  D_3  S_3  
     e( 19 - 19) =     43.00198  eV     1   --> B_1  D_3  S_3  
     e( 20 - 20) =     43.59740  eV     1   --> A_1  D_1  S_1  

 **************************************************************************

 **************************************************************************

                    xk=(   0.00000,   0.41858,   0.00000  )

     Band symmetry, C_2v (mm2)  point group:

     e(  1 -  1) =    -38.40183  eV     1   --> A_1  D_1  S_1  
     e(  2 -  2) =    -13.10530  eV     1   --> A_1  D_1  S_1  
     e(  3 -  3) =    -12.63467  eV     1   --> B_2  D_4  S_4  
     e(  4 -  4) =    -12.43807  eV     1   --> B_1  D_3  S_3  
     e(  5 -  5) =      9.92548  eV     1   --> A_1  D_1  S_1  
     e(  6 -  6) =     14.01816  eV     1   --> A_1  D_1  S_1  
     e(  7 -  7) =     16.81396  eV     1   --> B_2  D_4  S_4  
     e(  8 -  8) =     17.61302  eV     1   --> A_1  D_1  S_1  
     e(  9 -  9) =     18.34686  eV     1   --> B_1  D_3  S_3  
     e( 10 - 10) =     22.73582  eV     1   --> A_2  D_2  S_2  
     e( 11 - 11) =     24.62486  eV     1   --> A_1  D_1  S_1  
     e( 12 - 12) =     24.76491  eV     1   --> B_1  D_3  S_3  
     e( 13 - 13) =     25.62372  eV     1   --> B_2  D_4  S_4  
     e( 14 - 14) =     30.91040  eV     1   --> A_1  D_1  S_1  
     e( 15 - 15) =     31.62266  eV     1   --> B_2  D_4  S_4  
     e( 16 - 16) =     33.55570  eV     1   --> A_1  D_1  S_1  
     e( 17 - 17) =     36.66865  eV     1   --> A_1  D_1  S_1  
     e( 18 - 18) =     37.13791  eV     1   --> B_1  D_3  S_3  
     e( 19 - 19) =     42.67721  eV     1   --> B_1  D_3  S_3  
     e( 20 - 20) =     43.41466  eV     1   --> A_1  D_1  S_1  

 **************************************************************************

 **************************************************************************

                    xk=(   0.00000,   0.43301,   0.00000  )

     Band symmetry, C_2v (mm2)  point group:

     e(  1 -  1) =    -38.39768  eV     1   --> A_1  D_1  S_1  
     e(  2 -  2) =    -13.13405  eV     1   --> A_1  D_1  S_1  
     e(  3 -  3) =    -12.62918  eV     1   --> B_2  D_4  S_4  
     e(  4 -  4) =    -12.44496  eV     1   --> B_1  D_3  S_3  
     e(  5 -  5) =     10.07034  eV     1   --> A_1  D_1  S_1  
     e(  6 -  6) =     13.85844  eV     1   --> A_1  D_1  S_1  
     e(  7 -  7) =     16.75484  eV     1   --> B_2  D_4  S_4  
     e(  8 -  8) =     17.55469  eV     1   --> A_1  D_1  S_1  
     e(  9 -  9) =     18.34765  eV     1   --> B_1  D_3  S_3  
     e( 10 - 10) =     22.70800  eV     1   --> A_2  D_2  S_2  
     e( 11 - 11) =     24.80163  eV     1   --> A_1  D_1  S_1  
     e( 12 - 12) =     24.82198  eV     1   --> B_1  D_3  S_3  
     e( 13 - 13) =     25.56116  eV     1   --> B_2  D_4  S_4  
     e( 14 - 14) =     30.86331  eV     1   --> A_1  D_1  S_1  
     e( 15 - 15) =     31.81706  eV     1   --> B_2  D_4  S_4  
     e( 16 - 16) =     33.41609  eV     1   --> A_1  D_1  S_1  
     e( 17 - 17) =     37.00502  eV     1   --> A_1  D_1  S_1  
     e( 18 - 18) =     37.51231  eV     1   --> B_1  D_3  S_3  
     e( 19 - 19) =     42.37367  eV     1   --> B_1  D_3  S_3  
     e( 20 - 20) =     43.23015  eV     1   --> A_1  D_1  S_1  

 **************************************************************************

 **************************************************************************

                    xk=(   0.00000,   0.44745,   0.00000  )

     Band symmetry, C_2v (mm2)  point group:

     e(  1 -  1) =    -38.39385  eV     1   --> A_1  D_1  S_1  
     e(  2 -  2) =    -13.16054  eV     1   --> A_1  D_1  S_1  
     e(  3 -  3) =    -12.62410  eV     1   --> B_2  D_4  S_4  
     e(  4 -  4) =    -12.45131  eV     1   --> B_1  D_3  S_3  
     e(  5 -  5) =     10.21483  eV     1   --> A_1  D_1  S_1  
     e(  6 -  6) =     13.70106  eV     1   --> A_1  D_1  S_1  
     e(  7 -  7) =     16.70114  eV     1   --> B_2  D_4  S_4  
     e(  8 -  8) =     17.49800  eV     1   --> A_1  D_1  S_1  
     e(  9 -  9) =     18.34721  eV     1   --> B_1  D_3  S_3  
     e( 10 - 10) =     22.68244  eV     1   --> A_2  D_2  S_2  
     e( 11 - 11) =     24.87962  eV     1   --> B_1  D_3  S_3  
     e( 12 - 12) =     24.98520  eV     1   --> A_1  D_1  S_1  
     e( 13 - 13) =     25.50080  eV     1   --> B_2  D_4  S_4  
     e( 14 - 14) =     30.80081  eV     1   --> A_1  D_1  S_1  
     e( 15 - 15) =     32.00770  eV     1   --> B_2  D_4  S_4  
     e( 16 - 16) =     33.28347  eV     1   --> A_1  D_1  S_1  
     e( 17 - 17) =     37.33324  eV     1   --> A_1  D_1  S_1  
     e( 18 - 18) =     37.87931  eV     1   --> B_1  D_3  S_3  
     e( 19 - 19) =     42.09301  eV     1   --> B_1  D_3  S_3  
     e( 20 - 20) =     43.04788  eV     1   --> A_1  D_1  S_1  

 **************************************************************************

 **************************************************************************

                    xk=(   0.00000,   0.46188,   0.00000  )

     Band symmetry, C_2v (mm2)  point group:

     e(  1 -  1) =    -38.39035  eV     1   --> A_1  D_1  S_1  
     e(  2 -  2) =    -13.18464  eV     1   --> A_1  D_1  S_1  
     e(  3 -  3) =    -12.61947  eV     1   --> B_2  D_4  S_4  
     e(  4 -  4) =    -12.45710  eV     1   --> B_1  D_3  S_3  
     e(  5 -  5) =     10.35756  eV     1   --> A_1  D_1  S_1  
     e(  6 -  6) =     13.54682  eV     1   --> A_1  D_1  S_1  
     e(  7 -  7) =     16.65256  eV     1   --> B_2  D_4  S_4  
     e(  8 -  8) =     17.44414  eV     1   --> A_1  D_1  S_1  
     e(  9 -  9) =     18.34577  eV     1   --> B_1  D_3  S_3  
     e( 10 - 10) =     22.65926  eV     1   --> A_2  D_2  S_2  
     e( 11 - 11) =     24.93631  eV     1   --> B_1  D_3  S_3  
     e( 12 - 12) =     25.17205  eV     1   --> A_1  D_1  S_1  
     e( 13 - 13) =     25.44367  eV     1   --> B_2  D_4  S_4  
     e( 14 - 14) =     30.72291  eV     1   --> A_1  D_1  S_1  
     e( 15 - 15) =     32.19022  eV     1   --> B_2  D_4  S_4  
     e( 16 - 16) =     33.16151  eV     1   --> A_1  D_1  S_1  
     e( 17 - 17) =     37.65064  eV     1   --> A_1  D_1  S_1  
     e( 18 - 18) =     38.23528  eV     1   --> B_1  D_3  S_3  
     e( 19 - 19) =     41.83628  eV     1   --> B_1  D_3  S_3  
     e( 20 - 20) =     42.86628  eV     1   --> A_1  D_1  S_1  

 **************************************************************************

 **************************************************************************

                    xk=(   0.00000,   0.47631,   0.00000  )

     Band symmetry, C_2v (mm2)  point group:

     e(  1 -  1) =    -38.38721  eV     1   --> A_1  D_1  S_1  
     e(  2 -  2) =    -13.20621  eV     1   --> A_1  D_1  S_1  
     e(  3 -  3) =    -12.61530  eV     1   --> B_2  D_4  S_4  
     e(  4 -  4) =    -12.46229  eV     1   --> B_1  D_3  S_3  
     e(  5 -  5) =     10.49754  eV     1   --> A_1  D_1  S_1  
     e(  6 -  6) =     13.39686  eV     1   --> A_1  D_1  S_1  
     e(  7 -  7) =     16.60978  eV     1   --> B_2  D_4  S_4  
     e(  8 -  8) =     17.39418  eV     1   --> A_1  D_1  S_1  
     e(  9 -  9) =     18.34378  eV     1   --> B_1  D_3  S_3  
     e( 10 - 10) =     22.63857  eV     1   --> A_2  D_2  S_2  
     e( 11 - 11) =     24.99059  eV     1   --> B_1  D_3  S_3  
     e( 12 - 12) =     25.35826  eV     1   --> A_1  D_1  S_1  
     e( 13 - 13) =     25.39138  eV     1   --> B_2  D_4  S_4  
     e( 14 - 14) =     30.63111  eV     1   --> A_1  D_1  S_1  
     e( 15 - 15) =     32.36265  eV     1   --> B_2  D_4  S_4  
     e( 16 - 16) =     33.05295  eV     1   --> A_1  D_1  S_1  
     e( 17 - 17) =     37.95415  eV     1   --> A_1  D_1  S_1  
     e( 18 - 18) =     38.57758  eV     1   --> B_1  D_3  S_3  
     e( 19 - 19) =     41.60426  eV     1   --> B_1  D_3  S_3  
     e( 20 - 20) =     42.68686  eV     1   --> A_1  D_1  S_1  

 **************************************************************************

 **************************************************************************

                    xk=(   0.00000,   0.49075,   0.00000  )

     Band symmetry, C_2v (mm2)  point group:

     e(  1 -  1) =    -38.38443  eV     1   --> A_1  D_1  S_1  
     e(  2 -  2) =    -13.22513  eV     1   --> A_1  D_1  S_1  
     e(  3 -  3) =    -12.61164  eV     1   --> B_2  D_4  S_4  
     e(  4 -  4) =    -12.46685  eV     1   --> B_1  D_3  S_3  
     e(  5 -  5) =     10.63349  eV     1   --> A_1  D_1  S_1  
     e(  6 -  6) =     13.25304  eV     1   --> A_1  D_1  S_1  
     e(  7 -  7) =     16.57272  eV     1   --> B_2  D_4  S_4  
     e(  8 -  8) =     17.34913  eV     1   --> A_1  D_1  S_1  
     e(  9 -  9) =     18.34148  eV     1   --> B_1  D_3  S_3  
     e( 10 - 10) =     22.62046  eV     1   --> A_2  D_2  S_2  
     e( 11 - 11) =     25.04103  eV     1   --> B_1  D_3  S_3  
     e( 12 - 12) =     25.34460  eV     1   --> B_2  D_4  S_4  
     e( 13 - 13) =     25.53942  eV     1   --> A_1  D_1  S_1  
     e( 14 - 14) =     30.53053  eV     1   --> A_1  D_1  S_1  
     e( 15 - 15) =     32.52136  eV     1   --> B_2  D_4  S_4  
     e( 16 - 16) =     32.96126  eV     1   --> A_1  D_1  S_1  
     e( 17 - 17) =     38.24197  eV     1   --> A_1  D_1  S_1  
     e( 18 - 18) =     38.90125  eV     1   --> B_1  D_3  S_3  
     e( 19 - 19) =     41.39805  eV     1   --> B_1  D_3  S_3  
     e( 20 - 20) =     42.51626  eV     1   --> A_1  D_1  S_1  

 **************************************************************************

 **************************************************************************

                    xk=(   0.00000,   0.50518,   0.00000  )

     Band symmetry, C_2v (mm2)  point group:

     e(  1 -  1) =    -38.38206  eV     1   --> A_1  D_1  S_1  
     e(  2 -  2) =    -13.24131  eV     1   --> A_1  D_1  S_1  
     e(  3 -  3) =    -12.60850  eV     1   --> B_2  D_4  S_4  
     e(  4 -  4) =    -12.47076  eV     1   --> B_1  D_3  S_3  
     e(  5 -  5) =     10.76250  eV     1   --> A_1  D_1  S_1  
     e(  6 -  6) =     13.11748  eV     1   --> A_1  D_1  S_1  
     e(  7 -  7) =     16.54129  eV     1   --> B_2  D_4  S_4  
     e(  8 -  8) =     17.30972  eV     1   --> A_1  D_1  S_1  
     e(  9 -  9) =     18.33909  eV     1   --> B_1  D_3  S_3  
     e( 10 - 10) =     22.60500  eV     1   --> A_2  D_2  S_2  
     e( 11 - 11) =     25.08627  eV     1   --> B_1  D_3  S_3  
     e( 12 - 12) =     25.30396  eV     1   --> B_2  D_4  S_4  
     e( 13 - 13) =     25.71000  eV     1   --> A_1  D_1  S_1  
     e( 14 - 14) =     30.42532  eV     1   --> A_1  D_1  S_1  
     e( 15 - 15) =     32.66275  eV     1   --> B_2  D_4  S_4  
     e( 16 - 16) =     32.88404  eV     1   --> A_1  D_1  S_1  
     e( 17 - 17) =     38.50821  eV     1   --> A_1  D_1  S_1  
     e( 18 - 18) =     39.20055  eV     1   --> B_1  D_3  S_3  
     e( 19 - 19) =     41.21795  eV     1   --> B_1  D_3  S_3  
     e( 20 - 20) =     42.35112  eV     1   --> A_1  D_1  S_1  

 **************************************************************************

 **************************************************************************

                    xk=(   0.00000,   0.51962,   0.00000  )

     Band symmetry, C_2v (mm2)  point group:

     e(  1 -  1) =    -38.38010  eV     1   --> A_1  D_1  S_1  
     e(  2 -  2) =    -13.25466  eV     1   --> A_1  D_1  S_1  
     e(  3 -  3) =    -12.60590  eV     1   --> B_2  D_4  S_4  
     e(  4 -  4) =    -12.47398  eV     1   --> B_1  D_3  S_3  
     e(  5 -  5) =     10.88113  eV     1   --> A_1  D_1  S_1  
     e(  6 -  6) =     12.99363  eV     1   --> A_1  D_1  S_1  
     e(  7 -  7) =     16.51553  eV     1   --> B_2  D_4  S_4  
     e(  8 -  8) =     17.27661  eV     1   --> A_1  D_1  S_1  
     e(  9 -  9) =     18.33684  eV     1   --> B_1  D_3  S_3  
     e( 10 - 10) =     22.59226  eV     1   --> A_2  D_2  S_2  
     e( 11 - 11) =     25.12511  eV     1   --> B_1  D_3  S_3  
     e( 12 - 12) =     25.27003  eV     1   --> B_2  D_4  S_4  
     e( 13 - 13) =     25.86401  eV     1   --> A_1  D_1  S_1  
     e( 14 - 14) =     30.32228  eV     1   --> A_1  D_1  S_1  
     e( 15 - 15) =     32.78363  eV     1   --> B_2  D_4  S_4  
     e( 16 - 16) =     32.82264  eV     1   --> A_1  D_1  S_1  
     e( 17 - 17) =     38.74719  eV     1   --> A_1  D_1  S_1  
     e( 18 - 18) =     39.46877  eV     1   --> B_1  D_3  S_3  
     e( 19 - 19) =     41.06418  eV     1   --> B_1  D_3  S_3  
     e( 20 - 20) =     42.19731  eV     1   --> A_1  D_1  S_1  

 **************************************************************************

 **************************************************************************

                    xk=(   0.00000,   0.53405,   0.00000  )

     Band symmetry, C_2v (mm2)  point group:

     e(  1 -  1) =    -38.37856  eV     1   --> A_1  D_1  S_1  
     e(  2 -  2) =    -13.26512  eV     1   --> A_1  D_1  S_1  
     e(  3 -  3) =    -12.60386  eV     1   --> B_2  D_4  S_4  
     e(  4 -  4) =    -12.47651  eV     1   --> B_1  D_3  S_3  
     e(  5 -  5) =     10.98459  eV     1   --> A_1  D_1  S_1  
     e(  6 -  6) =     12.88619  eV     1   --> A_1  D_1  S_1  
     e(  7 -  7) =     16.49547  eV     1   --> B_2  D_4  S_4  
     e(  8 -  8) =     17.25033  eV     1   --> A_1  D_1  S_1  
     e(  9 -  9) =     18.33490  eV     1   --> B_1  D_3  S_3  
     e( 10 - 10) =     22.58229  eV     1   --> A_2  D_2  S_2  
     e( 11 - 11) =     25.15649  eV     1   --> B_1  D_3  S_3  
     e( 12 - 12) =     25.24324  eV     1   --> B_2  D_4  S_4  
     e( 13 - 13) =     25.99465  eV     1   --> A_1  D_1  S_1  
     e( 14 - 14) =     30.22936  eV     1   --> A_1  D_1  S_1  
     e( 15 - 15) =     32.77635  eV     1   --> A_1  D_1  S_1  
     e( 16 - 16) =     32.88111  eV     1   --> B_2  D_4  S_4  
     e( 17 - 17) =     38.95090  eV     1   --> A_1  D_1  S_1  
     e( 18 - 18) =     39.69794  eV     1   --> B_1  D_3  S_3  
     e( 19 - 19) =     40.93697  eV     1   --> B_1  D_3  S_3  
     e( 20 - 20) =     42.06138  eV     1   --> A_1  D_1  S_1  

 **************************************************************************

 **************************************************************************

                    xk=(   0.00000,   0.54848,   0.00000  )

     Band symmetry, C_2v (mm2)  point group:

     e(  1 -  1) =    -38.37745  eV     1   --> A_1  D_1  S_1  
     e(  2 -  2) =    -13.27262  eV     1   --> A_1  D_1  S_1  
     e(  3 -  3) =    -12.60239  eV     1   --> B_2  D_4  S_4  
     e(  4 -  4) =    -12.47833  eV     1   --> B_1  D_3  S_3  
     e(  5 -  5) =     11.06663  eV     1   --> A_1  D_1  S_1  
     e(  6 -  6) =     12.80136  eV     1   --> A_1  D_1  S_1  
     e(  7 -  7) =     16.48113  eV     1   --> B_2  D_4  S_4  
     e(  8 -  8) =     17.23128  eV     1   --> A_1  D_1  S_1  
     e(  9 -  9) =     18.33342  eV     1   --> B_1  D_3  S_3  
     e( 10 - 10) =     22.57515  eV     1   --> A_2  D_2  S_2  
     e( 11 - 11) =     25.17955  eV     1   --> B_1  D_3  S_3  
     e( 12 - 12) =     25.22390  eV     1   --> B_2  D_4  S_4  
     e( 13 - 13) =     26.09485  eV     1   --> A_1  D_1  S_1  
     e( 14 - 14) =     30.15492  eV     1   --> A_1  D_1  S_1  
     e( 15 - 15) =     32.74423  eV     1   --> A_1  D_1  S_1  
     e( 16 - 16) =     32.95270  eV     1   --> B_2  D_4  S_4  
     e( 17 - 17) =     39.10921  eV     1   --> A_1  D_1  S_1  
     e( 18 - 18) =     39.87849  eV     1   --> B_1  D_3  S_3  
     e( 19 - 19) =     40.83759  eV     1   --> B_1  D_3  S_3  
     e( 20 - 20) =     41.95231  eV     1   --> A_1  D_1  S_1  

 **************************************************************************

 **************************************************************************

                    xk=(   0.00000,   0.56292,   0.00000  )

     Band symmetry, C_2v (mm2)  point group:

     e(  1 -  1) =    -38.37679  eV     1   --> A_1  D_1  S_1  
     e(  2 -  2) =    -13.27714  eV     1   --> A_1  D_1  S_1  
     e(  3 -  3) =    -12.60151  eV     1   --> B_2  D_4  S_4  
     e(  4 -  4) =    -12.47942  eV     1   --> B_1  D_3  S_3  
     e(  5 -  5) =     11.12008  eV     1   --> A_1  D_1  S_1  
     e(  6 -  6) =     12.74633  eV     1   --> A_1  D_1  S_1  
     e(  7 -  7) =     16.47252  eV     1   --> B_2  D_4  S_4  
     e(  8 -  8) =     17.21972  eV     1   --> A_1  D_1  S_1  
     e(  9 -  9) =     18.33131  eV     1   --> B_1  D_3  S_3  
     e( 10 - 10) =     22.57084  eV     1   --> A_2  D_2  S_2  
     e( 11 - 11) =     25.19365  eV     1   --> B_1  D_3  S_3  
     e( 12 - 12) =     25.21115  eV     1   --> B_2  D_4  S_4  
     e( 13 - 13) =     26.15816  eV     1   --> A_1  D_1  S_1  
     e( 14 - 14) =     30.10644  eV     1   --> A_1  D_1  S_1  
     e( 15 - 15) =     32.72502  eV     1   --> A_1  D_1  S_1  
     e( 16 - 16) =     32.99646  eV     1   --> B_2  D_4  S_4  
     e( 17 - 17) =     39.21074  eV     1   --> A_1  D_1  S_1  
     e( 18 - 18) =     39.99782  eV     1   --> B_1  D_3  S_3  
     e( 19 - 19) =     40.77048  eV     1   --> B_1  D_3  S_3  
     e( 20 - 20) =     41.88262  eV     1   --> A_1  D_1  S_1  

 **************************************************************************

 **************************************************************************

                    xk=(   0.00000,   0.57735,   0.00000  )

     point group D_2h (mmm) 
     there are  8 classes
     the character table:

       E     C2    C2'   C2''  i     s_v   s_v'  s_v''
A_g    1.00  1.00  1.00  1.00  1.00  1.00  1.00  1.00
B_1g   1.00  1.00 -1.00 -1.00  1.00  1.00 -1.00 -1.00
B_2g   1.00 -1.00  1.00 -1.00  1.00 -1.00  1.00 -1.00
B_3g   1.00 -1.00 -1.00  1.00  1.00 -1.00 -1.00  1.00
A_u    1.00  1.00  1.00  1.00 -1.00 -1.00 -1.00 -1.00
B_1u   1.00  1.00 -1.00 -1.00 -1.00 -1.00  1.00  1.00
B_2u   1.00 -1.00  1.00 -1.00 -1.00  1.00 -1.00  1.00
B_3u   1.00 -1.00 -1.00  1.00 -1.00  1.00  1.00 -1.00

     the symmetry operations in each class and the name of the first element:

     E        1
                                                                 
     C2       2
                                                                 
     C2'      4
                                                                 
     C2''     3
                                                                 
     i        5
                                                                 
     s_v      6
                                                                 
     s_v'     8
                                                                 
     s_v''    7
                                                                 

     Band symmetry, D_2h (mmm)  point group:

     e(  1 -  1) =    -38.37657  eV     1   --> A_g            
     e(  2 -  2) =    -13.27865  eV     1   --> B_3u           
     e(  3 -  3) =    -12.60121  eV     1   --> B_1u           
     e(  4 -  4) =    -12.47979  eV     1   --> B_2u           
     e(  5 -  5) =     11.13847  eV     1   --> A_g            
     e(  6 -  6) =     12.72700  eV     1   --> B_3u           
     e(  7 -  7) =     16.46963  eV     1   --> B_2g           
     e(  8 -  8) =     17.21581  eV     1   --> A_g            
     e(  9 -  9) =     18.33095  eV     1   --> B_2u           
     e( 10 - 10) =     22.56941  eV     1   --> B_3g           
     e( 11 - 11) =     25.19839  eV     1   --> B_1g           
     e( 12 - 12) =     25.20600  eV     1   --> B_1u           
     e( 13 - 13) =     26.17978  eV     1   --> A_g            
     e( 14 - 14) =     30.08920  eV     1   --> B_3u           
     e( 15 - 15) =     32.71849  eV     1   --> A_g            
     e( 16 - 16) =     33.01117  eV     1   --> B_2g           
     e( 17 - 17) =     39.24566  eV     1   --> A_g            
     e( 18 - 18) =     40.04044  eV     1   --> B_1g           
     e( 19 - 19) =     40.74602  eV     1   --> B_2u           
     e( 20 - 20) =     41.85423  eV     1   --> B_3u           

 **************************************************************************

 **************************************************************************

                    xk=(   0.01667,   0.57735,   0.00000  )

     point group C_2v (mm2) 
     there are  4 classes
     the character table:

       E     C2    s_v   s_v' 
A_1    1.00  1.00  1.00  1.00
A_2    1.00  1.00 -1.00 -1.00
B_1    1.00 -1.00  1.00 -1.00
B_2    1.00 -1.00 -1.00  1.00

     the symmetry operations in each class and the name of the first element:

     E        1
                                                                 
     C2       2
                                                                 
     s_v      4
                                                                 
     s_v'     3
                                                                 

     Band symmetry, C_2v (mm2)  point group:

     e(  1 -  1) =    -38.37646  eV     1   --> A_1  D_1  S_1  
     e(  2 -  2) =    -13.27777  eV     1   --> B_2  D_4  S_4  
     e(  3 -  3) =    -12.60108  eV     1   --> B_1  D_3  S_3  
     e(  4 -  4) =    -12.48170  eV     1   --> A_1  D_1  S_1  
     e(  5 -  5) =     11.14480  eV     1   --> A_1  D_1  S_1  
     e(  6 -  6) =     12.72837  eV     1   --> B_2  D_4  S_4  
     e(  7 -  7) =     16.47390  eV     1   --> A_2  D_2  S_2  
     e(  8 -  8) =     17.17851  eV     1   --> A_1  D_1  S_1  
     e(  9 -  9) =     18.36924  eV     1   --> A_1  D_1  S_1  
     e( 10 - 10) =     22.51874  eV     1   --> B_1  D_3  S_3  
     e( 11 - 11) =     25.17948  eV     1   --> B_2  D_4  S_4  
     e( 12 - 12) =     25.26662  eV     1   --> B_1  D_3  S_3  
     e( 13 - 13) =     26.17102  eV     1   --> A_1  D_1  S_1  
     e( 14 - 14) =     30.11652  eV     1   --> B_2  D_4  S_4  
     e( 15 - 15) =     32.73496  eV     1   --> A_1  D_1  S_1  
     e( 16 - 16) =     33.00606  eV     1   --> A_2  D_2  S_2  
     e( 17 - 17) =     39.21852  eV     1   --> A_1  D_1  S_1  
     e( 18 - 18) =     40.03142  eV     1   --> B_2  D_4  S_4  
     e( 19 - 19) =     40.76630  eV     1   --> A_1  D_1  S_1  
     e( 20 - 20) =     41.86773  eV     1   --> B_2  D_4  S_4  

 **************************************************************************

 **************************************************************************

                    xk=(   0.03333,   0.57735,   0.00000  )

     Band symmetry, C_2v (mm2)  point group:

     e(  1 -  1) =    -38.37617  eV     1   --> A_1  D_1  S_1  
     e(  2 -  2) =    -13.27513  eV     1   --> B_2  D_4  S_4  
     e(  3 -  3) =    -12.60070  eV     1   --> B_1  D_3  S_3  
     e(  4 -  4) =    -12.48742  eV     1   --> A_1  D_1  S_1  
     e(  5 -  5) =     11.16266  eV     1   --> A_1  D_1  S_1  
     e(  6 -  6) =     12.73205  eV     1   --> B_2  D_4  S_4  
     e(  7 -  7) =     16.48664  eV     1   --> A_2  D_2  S_2  
     e(  8 -  8) =     17.07761  eV     1   --> A_1  D_1  S_1  
     e(  9 -  9) =     18.46917  eV     1   --> A_1  D_1  S_1  
     e( 10 - 10) =     22.37863  eV     1   --> B_1  D_3  S_3  
     e( 11 - 11) =     25.12410  eV     1   --> B_2  D_4  S_4  
     e( 12 - 12) =     25.42950  eV     1   --> B_1  D_3  S_3  
     e( 13 - 13) =     26.14457  eV     1   --> A_1  D_1  S_1  
     e( 14 - 14) =     30.19545  eV     1   --> B_2  D_4  S_4  
     e( 15 - 15) =     32.78152  eV     1   --> A_1  D_1  S_1  
     e( 16 - 16) =     32.99071  eV     1   --> A_2  D_2  S_2  
     e( 17 - 17) =     39.14167  eV     1   --> A_1  D_1  S_1  
     e( 18 - 18) =     40.00489  eV     1   --> B_2  D_4  S_4  
     e( 19 - 19) =     40.82066  eV     1   --> A_1  D_1  S_1  
     e( 20 - 20) =     41.89457  eV     1   --> B_2  D_4  S_4  

 **************************************************************************

 **************************************************************************

                    xk=(   0.05000,   0.57735,   0.00000  )

     Band symmetry, C_2v (mm2)  point group:

     e(  1 -  1) =    -38.37569  eV     1   --> A_1  D_1  S_1  
     e(  2 -  2) =    -13.27074  eV     1   --> B_2  D_4  S_4  
     e(  3 -  3) =    -12.60007  eV     1   --> B_1  D_3  S_3  
     e(  4 -  4) =    -12.49687  eV     1   --> A_1  D_1  S_1  
     e(  5 -  5) =     11.19219  eV     1   --> A_1  D_1  S_1  
     e(  6 -  6) =     12.73769  eV     1   --> B_2  D_4  S_4  
     e(  7 -  7) =     16.50786  eV     1   --> A_2  D_2  S_2  
     e(  8 -  8) =     16.93443  eV     1   --> A_1  D_1  S_1  
     e(  9 -  9) =     18.61062  eV     1   --> A_1  D_1  S_1  
     e( 10 - 10) =     22.17476  eV     1   --> B_1  D_3  S_3  
     e( 11 - 11) =     25.03581  eV     1   --> B_2  D_4  S_4  
     e( 12 - 12) =     25.67118  eV     1   --> B_1  D_3  S_3  
     e( 13 - 13) =     26.10059  eV     1   --> A_1  D_1  S_1  
     e( 14 - 14) =     30.32277  eV     1   --> B_2  D_4  S_4  
     e( 15 - 15) =     32.85881  eV     1   --> A_1  D_1  S_1  
     e( 16 - 16) =     32.96515  eV     1   --> A_2  D_2  S_2  
     e( 17 - 17) =     39.02651  eV     1   --> A_1  D_1  S_1  
     e( 18 - 18) =     39.95693  eV     1   --> B_2  D_4  S_4  
     e( 19 - 19) =     40.89682  eV     1   --> A_1  D_1  S_1  
     e( 20 - 20) =     41.93679  eV     1   --> B_2  D_4  S_4  

 **************************************************************************

 **************************************************************************

                    xk=(   0.06667,   0.57735,   0.00000  )

     Band symmetry, C_2v (mm2)  point group:

     e(  1 -  1) =    -38.37503  eV     1   --> A_1  D_1  S_1  
     e(  2 -  2) =    -13.26462  eV     1   --> B_2  D_4  S_4  
     e(  3 -  3) =    -12.59921  eV     1   --> B_1  D_3  S_3  
     e(  4 -  4) =    -12.50992  eV     1   --> A_1  D_1  S_1  
     e(  5 -  5) =     11.23351  eV     1   --> A_1  D_1  S_1  
     e(  6 -  6) =     12.74639  eV     1   --> B_2  D_4  S_4  
     e(  7 -  7) =     16.53755  eV     1   --> A_2  D_2  S_2  
     e(  8 -  8) =     16.76566  eV     1   --> A_1  D_1  S_1  
     e(  9 -  9) =     18.77842  eV     1   --> A_1  D_1  S_1  
     e( 10 - 10) =     21.93151  eV     1   --> B_1  D_3  S_3  
     e( 11 - 11) =     24.92002  eV     1   --> B_2  D_4  S_4  
     e( 12 - 12) =     25.96698  eV     1   --> B_1  D_3  S_3  
     e( 13 - 13) =     26.03964  eV     1   --> A_1  D_1  S_1  
     e( 14 - 14) =     30.49332  eV     1   --> B_2  D_4  S_4  
     e( 15 - 15) =     32.92971  eV     1   --> A_2  D_2  S_2  
     e( 16 - 16) =     32.96638  eV     1   --> A_1  D_1  S_1  
     e( 17 - 17) =     38.88484  eV     1   --> A_1  D_1  S_1  
     e( 18 - 18) =     39.90360  eV     1   --> B_2  D_4  S_4  
     e( 19 - 19) =     40.98106  eV     1   --> A_1  D_1  S_1  
     e( 20 - 20) =     41.99379  eV     1   --> B_2  D_4  S_4  

 **************************************************************************

 **************************************************************************

                    xk=(   0.08333,   0.57735,   0.00000  )

     Band symmetry, C_2v (mm2)  point group:

     e(  1 -  1) =    -38.37420  eV     1   --> A_1  D_1  S_1  
     e(  2 -  2) =    -13.25680  eV     1   --> B_2  D_4  S_4  
     e(  3 -  3) =    -12.59813  eV     1   --> B_1  D_3  S_3  
     e(  4 -  4) =    -12.52640  eV     1   --> A_1  D_1  S_1  
     e(  5 -  5) =     11.28621  eV     1   --> A_1  D_1  S_1  
     e(  6 -  6) =     12.75742  eV     1   --> B_2  D_4  S_4  
     e(  7 -  7) =     16.57568  eV     1   --> A_2  D_2  S_2  
     e(  8 -  8) =     16.58034  eV     1   --> A_1  D_1  S_1  
     e(  9 -  9) =     18.96325  eV     1   --> A_1  D_1  S_1  
     e( 10 - 10) =     21.66624  eV     1   --> B_1  D_3  S_3  
     e( 11 - 11) =     24.78235  eV     1   --> B_2  D_4  S_4  
     e( 12 - 12) =     25.96206  eV     1   --> A_1  D_1  S_1  
     e( 13 - 13) =     26.29911  eV     1   --> B_1  D_3  S_3  
     e( 14 - 14) =     30.70095  eV     1   --> B_2  D_4  S_4  
     e( 15 - 15) =     32.88457  eV     1   --> A_2  D_2  S_2  
     e( 16 - 16) =     33.10331  eV     1   --> A_1  D_1  S_1  
     e( 17 - 17) =     38.72562  eV     1   --> A_1  D_1  S_1  
     e( 18 - 18) =     39.83526  eV     1   --> B_2  D_4  S_4  
     e( 19 - 19) =     41.06126  eV     1   --> A_1  D_1  S_1  
     e( 20 - 20) =     42.06226  eV     1   --> B_2  D_4  S_4  

 **************************************************************************

 **************************************************************************

                    xk=(   0.10000,   0.57735,   0.00000  )

     Band symmetry, C_2v (mm2)  point group:

     e(  1 -  1) =    -38.37322  eV     1   --> A_1  D_1  S_1  
     e(  2 -  2) =    -13.24729  eV     1   --> B_2  D_4  S_4  
     e(  3 -  3) =    -12.59685  eV     1   --> B_1  D_3  S_3  
     e(  4 -  4) =    -12.54609  eV     1   --> A_1  D_1  S_1  
     e(  5 -  5) =     11.35010  eV     1   --> A_1  D_1  S_1  
     e(  6 -  6) =     12.77095  eV     1   --> B_2  D_4  S_4  
     e(  7 -  7) =     16.38423  eV     1   --> A_1  D_1  S_1  
     e(  8 -  8) =     16.62223  eV     1   --> A_2  D_2  S_2  
     e(  9 -  9) =     19.16126  eV     1   --> A_1  D_1  S_1  
     e( 10 - 10) =     21.39014  eV     1   --> B_1  D_3  S_3  
     e( 11 - 11) =     24.62842  eV     1   --> B_2  D_4  S_4  
     e( 12 - 12) =     25.86849  eV     1   --> A_1  D_1  S_1  
     e( 13 - 13) =     26.65590  eV     1   --> B_1  D_3  S_3  
     e( 14 - 14) =     30.93995  eV     1   --> B_2  D_4  S_4  
     e( 15 - 15) =     32.83000  eV     1   --> A_2  D_2  S_2  
     e( 16 - 16) =     33.26868  eV     1   --> A_1  D_1  S_1  
     e( 17 - 17) =     38.55529  eV     1   --> A_1  D_1  S_1  
     e( 18 - 18) =     39.75730  eV     1   --> B_2  D_4  S_4  
     e( 19 - 19) =     41.12775  eV     1   --> A_1  D_1  S_1  
     e( 20 - 20) =     42.05307  eV     1   --> B_1  D_3  S_3  

 **************************************************************************

 **************************************************************************

                    xk=(   0.11667,   0.57735,   0.00000  )

     Band symmetry, C_2v (mm2)  point group:

     e(  1 -  1) =    -38.37211  eV     1   --> A_1  D_1  S_1  
     e(  2 -  2) =    -13.23615  eV     1   --> B_2  D_4  S_4  
     e(  3 -  3) =    -12.59539  eV     1   --> B_1  D_3  S_3  
     e(  4 -  4) =    -12.56874  eV     1   --> A_1  D_1  S_1  
     e(  5 -  5) =     11.42474  eV     1   --> A_1  D_1  S_1  
     e(  6 -  6) =     12.78700  eV     1   --> B_2  D_4  S_4  
     e(  7 -  7) =     16.17918  eV     1   --> A_1  D_1  S_1  
     e(  8 -  8) =     16.67716  eV     1   --> A_2  D_2  S_2  
     e(  9 -  9) =     19.36939  eV     1   --> A_1  D_1  S_1  
     e( 10 - 10) =     21.11024  eV     1   --> B_1  D_3  S_3  
[...]
     e(  9 -  9) =     19.54897  eV     1   --> B_1  D_3  S_3  
     e( 10 - 10) =     21.62335  eV     1   --> A_1  D_1  S_1  
     e( 11 - 11) =     23.31703  eV     1   --> A_1  D_1  S_1  
     e( 12 - 12) =     23.53402  eV     1   --> A_2  D_2  S_2  
     e( 13 - 13) =     23.97257  eV     1   --> B_2  D_4  S_4  
     e( 14 - 14) =     30.04070  eV     1   --> B_1  D_3  S_3  
     e( 15 - 15) =     33.88341  eV     1   --> B_2  D_4  S_4  
     e( 16 - 16) =     34.22041  eV     1   --> A_2  D_2  S_2  
     e( 17 - 17) =     36.33680  eV     1   --> A_2  D_2  S_2  
     e( 18 - 18) =     37.87410  eV     1   --> B_2  D_4  S_4  
     e( 19 - 19) =     39.81060  eV     1   --> A_1  D_1  S_1  
     e( 20 - 20) =     42.94468  eV     1   --> A_1  D_1  S_1  

 **************************************************************************

 **************************************************************************

                    xk=(   0.08333,   0.14434,   0.46477  )

     Band symmetry, C_2v (mm2)  point group:

     e(  1 -  1) =    -38.45773  eV     1   --> A_1  D_1  S_1  
     e(  2 -  2) =    -13.22766  eV     1   --> B_2  D_4  S_4  
     e(  3 -  3) =    -12.39577  eV     1   --> A_1  D_1  S_1  
     e(  4 -  4) =    -12.24496  eV     1   --> B_1  D_3  S_3  
     e(  5 -  5) =     10.32024  eV     1   --> B_2  D_4  S_4  
     e(  6 -  6) =     13.86779  eV     1   --> A_1  D_1  S_1  
     e(  7 -  7) =     17.92301  eV     1   --> A_2  D_2  S_2  
     e(  8 -  8) =     18.25877  eV     1   --> B_2  D_4  S_4  
     e(  9 -  9) =     19.71918  eV     1   --> B_1  D_3  S_3  
     e( 10 - 10) =     21.48674  eV     1   --> A_1  D_1  S_1  
     e( 11 - 11) =     23.26004  eV     1   --> A_1  D_1  S_1  
     e( 12 - 12) =     23.30155  eV     1   --> A_2  D_2  S_2  
     e( 13 - 13) =     23.67173  eV     1   --> B_2  D_4  S_4  
     e( 14 - 14) =     29.78549  eV     1   --> B_1  D_3  S_3  
     e( 15 - 15) =     34.03114  eV     1   --> B_2  D_4  S_4  
     e( 16 - 16) =     34.19742  eV     1   --> A_2  D_2  S_2  
     e( 17 - 17) =     36.20029  eV     1   --> A_2  D_2  S_2  
     e( 18 - 18) =     37.59621  eV     1   --> B_2  D_4  S_4  
     e( 19 - 19) =     40.08327  eV     1   --> A_1  D_1  S_1  
     e( 20 - 20) =     43.31632  eV     1   --> A_1  D_1  S_1  

 **************************************************************************

 **************************************************************************

                    xk=(   0.07500,   0.12990,   0.46477  )

     Band symmetry, C_2v (mm2)  point group:

     e(  1 -  1) =    -38.46255  eV     1   --> A_1  D_1  S_1  
     e(  2 -  2) =    -13.23591  eV     1   --> B_2  D_4  S_4  
     e(  3 -  3) =    -12.36103  eV     1   --> A_1  D_1  S_1  
     e(  4 -  4) =    -12.23573  eV     1   --> B_1  D_3  S_3  
     e(  5 -  5) =     10.32123  eV     1   --> B_2  D_4  S_4  
     e(  6 -  6) =     13.73644  eV     1   --> A_1  D_1  S_1  
     e(  7 -  7) =     18.19622  eV     1   --> A_2  D_2  S_2  
     e(  8 -  8) =     18.46396  eV     1   --> B_2  D_4  S_4  
     e(  9 -  9) =     19.88739  eV     1   --> B_1  D_3  S_3  
     e( 10 - 10) =     21.36231  eV     1   --> A_1  D_1  S_1  
     e( 11 - 11) =     23.06468  eV     1   --> A_2  D_2  S_2  
     e( 12 - 12) =     23.20814  eV     1   --> A_1  D_1  S_1  
     e( 13 - 13) =     23.37106  eV     1   --> B_2  D_4  S_4  
     e( 14 - 14) =     29.53258  eV     1   --> B_1  D_3  S_3  
     e( 15 - 15) =     34.16013  eV     1   --> A_2  D_2  S_2  
     e( 16 - 16) =     34.17647  eV     1   --> B_2  D_4  S_4  
     e( 17 - 17) =     36.09131  eV     1   --> A_2  D_2  S_2  
     e( 18 - 18) =     37.33398  eV     1   --> B_2  D_4  S_4  
     e( 19 - 19) =     40.32776  eV     1   --> A_1  D_1  S_1  
     e( 20 - 20) =     43.69822  eV     1   --> A_1  D_1  S_1  

 **************************************************************************

 **************************************************************************

                    xk=(   0.06667,   0.11547,   0.46477  )

     Band symmetry, C_2v (mm2)  point group:

     e(  1 -  1) =    -38.46695  eV     1   --> A_1  D_1  S_1  
     e(  2 -  2) =    -13.24345  eV     1   --> B_2  D_4  S_4  
     e(  3 -  3) =    -12.32877  eV     1   --> A_1  D_1  S_1  
     e(  4 -  4) =    -12.22751  eV     1   --> B_1  D_3  S_3  
     e(  5 -  5) =     10.32324  eV     1   --> B_2  D_4  S_4  
     e(  6 -  6) =     13.61684  eV     1   --> A_1  D_1  S_1  
     e(  7 -  7) =     18.47095  eV     1   --> A_2  D_2  S_2  
     e(  8 -  8) =     18.67829  eV     1   --> B_2  D_4  S_4  
     e(  9 -  9) =     20.05127  eV     1   --> B_1  D_3  S_3  
     e( 10 - 10) =     21.25037  eV     1   --> A_1  D_1  S_1  
     e( 11 - 11) =     22.82398  eV     1   --> A_2  D_2  S_2  
     e( 12 - 12) =     23.07154  eV     1   --> B_2  D_4  S_4  
     e( 13 - 13) =     23.16147  eV     1   --> A_1  D_1  S_1  
     e( 14 - 14) =     29.28797  eV     1   --> B_1  D_3  S_3  
     e( 15 - 15) =     34.11296  eV     1   --> A_2  D_2  S_2  
     e( 16 - 16) =     34.31972  eV     1   --> B_2  D_4  S_4  
     e( 17 - 17) =     36.00975  eV     1   --> A_2  D_2  S_2  
     e( 18 - 18) =     37.09116  eV     1   --> B_2  D_4  S_4  
     e( 19 - 19) =     40.54528  eV     1   --> A_1  D_1  S_1  
     e( 20 - 20) =     44.08728  eV     1   --> A_1  D_1  S_1  

 **************************************************************************

 **************************************************************************

                    xk=(   0.05833,   0.10104,   0.46477  )

     Band symmetry, C_2v (mm2)  point group:

     e(  1 -  1) =    -38.47094  eV     1   --> A_1  D_1  S_1  
     e(  2 -  2) =    -13.25026  eV     1   --> B_2  D_4  S_4  
     e(  3 -  3) =    -12.29936  eV     1   --> A_1  D_1  S_1  
     e(  4 -  4) =    -12.22027  eV     1   --> B_1  D_3  S_3  
     e(  5 -  5) =     10.32436  eV     1   --> B_2  D_4  S_4  
     e(  6 -  6) =     13.50932  eV     1   --> A_1  D_1  S_1  
     e(  7 -  7) =     18.74540  eV     1   --> A_2  D_2  S_2  
     e(  8 -  8) =     18.90076  eV     1   --> B_2  D_4  S_4  
     e(  9 -  9) =     20.20787  eV     1   --> B_1  D_3  S_3  
     e( 10 - 10) =     21.15115  eV     1   --> A_1  D_1  S_1  
     e( 11 - 11) =     22.57750  eV     1   --> A_2  D_2  S_2  
     e( 12 - 12) =     22.77298  eV     1   --> B_2  D_4  S_4  
     e( 13 - 13) =     23.11999  eV     1   --> A_1  D_1  S_1  
     e( 14 - 14) =     29.05450  eV     1   --> B_1  D_3  S_3  
     e( 15 - 15) =     34.05661  eV     1   --> A_2  D_2  S_2  
     e( 16 - 16) =     34.45899  eV     1   --> B_2  D_4  S_4  
     e( 17 - 17) =     35.95024  eV     1   --> A_2  D_2  S_2  
     e( 18 - 18) =     36.86154  eV     1   --> B_2  D_4  S_4  
     e( 19 - 19) =     40.73554  eV     1   --> A_1  D_1  S_1  
     e( 20 - 20) =     44.47985  eV     1   --> A_1  D_1  S_1  

 **************************************************************************

 **************************************************************************

                    xk=(   0.05000,   0.08660,   0.46477  )

     Band symmetry, C_2v (mm2)  point group:

     e(  1 -  1) =    -38.47444  eV     1   --> A_1  D_1  S_1  
     e(  2 -  2) =    -13.25627  eV     1   --> B_2  D_4  S_4  
     e(  3 -  3) =    -12.27313  eV     1   --> A_1  D_1  S_1  
     e(  4 -  4) =    -12.21401  eV     1   --> B_1  D_3  S_3  
     e(  5 -  5) =     10.32572  eV     1   --> B_2  D_4  S_4  
     e(  6 -  6) =     13.41479  eV     1   --> A_1  D_1  S_1  
     e(  7 -  7) =     19.02065  eV     1   --> A_2  D_2  S_2  
     e(  8 -  8) =     19.13135  eV     1   --> B_2  D_4  S_4  
     e(  9 -  9) =     20.35417  eV     1   --> B_1  D_3  S_3  
     e( 10 - 10) =     21.06487  eV     1   --> A_1  D_1  S_1  
     e( 11 - 11) =     22.32902  eV     1   --> A_2  D_2  S_2  
     e( 12 - 12) =     22.47763  eV     1   --> B_2  D_4  S_4  
     e( 13 - 13) =     23.08388  eV     1   --> A_1  D_1  S_1  
     e( 14 - 14) =     28.83835  eV     1   --> B_1  D_3  S_3  
     e( 15 - 15) =     33.99816  eV     1   --> A_2  D_2  S_2  
     e( 16 - 16) =     34.59537  eV     1   --> B_2  D_4  S_4  
     e( 17 - 17) =     35.91040  eV     1   --> A_2  D_2  S_2  
     e( 18 - 18) =     36.64951  eV     1   --> B_2  D_4  S_4  
     e( 19 - 19) =     40.89971  eV     1   --> A_1  D_1  S_1  
     e( 20 - 20) =     44.86520  eV     1   --> B_1  D_3  S_3  

 **************************************************************************

 **************************************************************************

                    xk=(   0.04167,   0.07217,   0.46477  )

     Band symmetry, C_2v (mm2)  point group:

     e(  1 -  1) =    -38.47747  eV     1   --> A_1  D_1  S_1  
     e(  2 -  2) =    -13.26143  eV     1   --> B_2  D_4  S_4  
     e(  3 -  3) =    -12.25038  eV     1   --> A_1  D_1  S_1  
     e(  4 -  4) =    -12.20872  eV     1   --> B_1  D_3  S_3  
     e(  5 -  5) =     10.32684  eV     1   --> B_2  D_4  S_4  
     e(  6 -  6) =     13.33374  eV     1   --> A_1  D_1  S_1  
     e(  7 -  7) =     19.29504  eV     1   --> A_2  D_2  S_2  
     e(  8 -  8) =     19.36842  eV     1   --> B_2  D_4  S_4  
     e(  9 -  9) =     20.48675  eV     1   --> B_1  D_3  S_3  
     e( 10 - 10) =     20.99166  eV     1   --> A_1  D_1  S_1  
     e( 11 - 11) =     22.07751  eV     1   --> A_2  D_2  S_2  
     e( 12 - 12) =     22.18456  eV     1   --> B_2  D_4  S_4  
     e( 13 - 13) =     23.05317  eV     1   --> A_1  D_1  S_1  
     e( 14 - 14) =     28.64422  eV     1   --> B_1  D_3  S_3  
     e( 15 - 15) =     33.94038  eV     1   --> A_2  D_2  S_2  
     e( 16 - 16) =     34.72786  eV     1   --> B_2  D_4  S_4  
     e( 17 - 17) =     35.88333  eV     1   --> A_2  D_2  S_2  
     e( 18 - 18) =     36.45390  eV     1   --> B_2  D_4  S_4  
     e( 19 - 19) =     41.03816  eV     1   --> A_1  D_1  S_1  
     e( 20 - 20) =     45.24381  eV     1   --> B_1  D_3  S_3  

 **************************************************************************

 **************************************************************************

                    xk=(   0.03333,   0.05774,   0.46477  )

     Band symmetry, C_2v (mm2)  point group:

     e(  1 -  1) =    -38.47997  eV     1   --> A_1  D_1  S_1  
     e(  2 -  2) =    -13.26571  eV     1   --> B_2  D_4  S_4  
     e(  3 -  3) =    -12.23139  eV     1   --> A_1  D_1  S_1  
     e(  4 -  4) =    -12.20441  eV     1   --> B_1  D_3  S_3  
     e(  5 -  5) =     10.32799  eV     1   --> B_2  D_4  S_4  
     e(  6 -  6) =     13.26676  eV     1   --> A_1  D_1  S_1  
     e(  7 -  7) =     19.56742  eV     1   --> A_2  D_2  S_2  
     e(  8 -  8) =     19.61151  eV     1   --> B_2  D_4  S_4  
     e(  9 -  9) =     20.60204  eV     1   --> B_1  D_3  S_3  
     e( 10 - 10) =     20.93163  eV     1   --> A_1  D_1  S_1  
     e( 11 - 11) =     21.82443  eV     1   --> A_2  D_2  S_2  
     e( 12 - 12) =     21.89667  eV     1   --> B_2  D_4  S_4  
     e( 13 - 13) =     23.02797  eV     1   --> A_1  D_1  S_1  
     e( 14 - 14) =     28.47708  eV     1   --> B_1  D_3  S_3  
     e( 15 - 15) =     33.88938  eV     1   --> A_2  D_2  S_2  
     e( 16 - 16) =     34.85538  eV     1   --> B_2  D_4  S_4  
     e( 17 - 17) =     35.86680  eV     1   --> A_2  D_2  S_2  
     e( 18 - 18) =     36.27580  eV     1   --> B_2  D_4  S_4  
     e( 19 - 19) =     41.15120  eV     1   --> A_1  D_1  S_1  
     e( 20 - 20) =     45.62534  eV     1   --> B_1  D_3  S_3  

 **************************************************************************

 **************************************************************************

                    xk=(   0.02500,   0.04330,   0.46477  )

     Band symmetry, C_2v (mm2)  point group:

     e(  1 -  1) =    -38.48194  eV     1   --> A_1  D_1  S_1  
     e(  2 -  2) =    -13.26908  eV     1   --> B_2  D_4  S_4  
     e(  3 -  3) =    -12.21638  eV     1   --> A_1  D_1  S_1  
     e(  4 -  4) =    -12.20106  eV     1   --> B_1  D_3  S_3  
     e(  5 -  5) =     10.32844  eV     1   --> B_2  D_4  S_4  
     e(  6 -  6) =     13.21413  eV     1   --> A_1  D_1  S_1  
     e(  7 -  7) =     19.83467  eV     1   --> A_2  D_2  S_2  
     e(  8 -  8) =     19.85679  eV     1   --> B_2  D_4  S_4  
     e(  9 -  9) =     20.69644  eV     1   --> B_1  D_3  S_3  
     e( 10 - 10) =     20.88487  eV     1   --> A_1  D_1  S_1  
     e( 11 - 11) =     21.57189  eV     1   --> A_2  D_2  S_2  
     e( 12 - 12) =     21.61555  eV     1   --> B_2  D_4  S_4  
     e( 13 - 13) =     23.00820  eV     1   --> A_1  D_1  S_1  
     e( 14 - 14) =     28.34135  eV     1   --> B_1  D_3  S_3  
     e( 15 - 15) =     33.84552  eV     1   --> A_2  D_2  S_2  
     e( 16 - 16) =     34.97526  eV     1   --> B_2  D_4  S_4  
     e( 17 - 17) =     35.85482  eV     1   --> A_2  D_2  S_2  
     e( 18 - 18) =     36.11602  eV     1   --> B_2  D_4  S_4  
     e( 19 - 19) =     41.23625  eV     1   --> A_1  D_1  S_1  
     e( 20 - 20) =     45.99906  eV     1   --> B_1  D_3  S_3  

 **************************************************************************

 **************************************************************************

                    xk=(   0.01667,   0.02887,   0.46477  )

     Band symmetry, C_2v (mm2)  point group:

     e(  1 -  1) =    -38.48335  eV     1   --> A_1  D_1  S_1  
     e(  2 -  2) =    -13.27149  eV     1   --> B_2  D_4  S_4  
     e(  3 -  3) =    -12.20552  eV     1   --> A_1  D_1  S_1  
     e(  4 -  4) =    -12.19867  eV     1   --> B_1  D_3  S_3  
     e(  5 -  5) =     10.32919  eV     1   --> B_2  D_4  S_4  
     e(  6 -  6) =     13.17637  eV     1   --> A_1  D_1  S_1  
     e(  7 -  7) =     20.09146  eV     1   --> A_2  D_2  S_2  
     e(  8 -  8) =     20.09894  eV     1   --> B_2  D_4  S_4  
     e(  9 -  9) =     20.76666  eV     1   --> B_1  D_3  S_3  
     e( 10 - 10) =     20.85143  eV     1   --> A_1  D_1  S_1  
     e( 11 - 11) =     21.32712  eV     1   --> A_2  D_2  S_2  
     e( 12 - 12) =     21.34792  eV     1   --> B_2  D_4  S_4  
     e( 13 - 13) =     22.99413  eV     1   --> A_1  D_1  S_1  
     e( 14 - 14) =     28.24121  eV     1   --> B_1  D_3  S_3  
     e( 15 - 15) =     33.81388  eV     1   --> A_2  D_2  S_2  
     e( 16 - 16) =     35.08223  eV     1   --> B_2  D_4  S_4  
     e( 17 - 17) =     35.84931  eV     1   --> A_2  D_2  S_2  
     e( 18 - 18) =     35.98224  eV     1   --> B_2  D_4  S_4  
     e( 19 - 19) =     41.29885  eV     1   --> A_1  D_1  S_1  
     e( 20 - 20) =     46.34527  eV     1   --> B_1  D_3  S_3  

 **************************************************************************

 **************************************************************************

                    xk=(   0.00833,   0.01443,   0.46477  )

     Band symmetry, C_2v (mm2)  point group:

     e(  1 -  1) =    -38.48421  eV     1   --> A_1  D_1  S_1  
     e(  2 -  2) =    -13.27296  eV     1   --> B_2  D_4  S_4  
     e(  3 -  3) =    -12.19896  eV     1   --> A_1  D_1  S_1  
     e(  4 -  4) =    -12.19724  eV     1   --> B_1  D_3  S_3  
     e(  5 -  5) =     10.32938  eV     1   --> B_2  D_4  S_4  
     e(  6 -  6) =     13.15357  eV     1   --> A_1  D_1  S_1  
     e(  7 -  7) =     20.31644  eV     1   --> A_2  D_2  S_2  
     e(  8 -  8) =     20.31726  eV     1   --> B_2  D_4  S_4  
     e(  9 -  9) =     20.81000  eV     1   --> B_1  D_3  S_3  
     e( 10 - 10) =     20.83135  eV     1   --> A_1  D_1  S_1  
     e( 11 - 11) =     21.10859  eV     1   --> A_2  D_2  S_2  
     e( 12 - 12) =     21.11413  eV     1   --> B_2  D_4  S_4  
     e( 13 - 13) =     22.98562  eV     1   --> A_1  D_1  S_1  
     e( 14 - 14) =     28.17973  eV     1   --> B_1  D_3  S_3  
     e( 15 - 15) =     33.79356  eV     1   --> A_2  D_2  S_2  
     e( 16 - 16) =     35.16283  eV     1   --> B_2  D_4  S_4  
     e( 17 - 17) =     35.84662  eV     1   --> A_2  D_2  S_2  
     e( 18 - 18) =     35.88372  eV     1   --> B_2  D_4  S_4  
     e( 19 - 19) =     41.33498  eV     1   --> A_1  D_1  S_1  
     e( 20 - 20) =     46.61875  eV     1   --> B_1  D_3  S_3  

 **************************************************************************

 **************************************************************************

                    xk=(   0.00000,   0.00000,   0.46477  )

     point group D_6h(6/mmm)
     there are 12 classes
     the character table:

       E     2C6   2C3   C2    3C2'  3C2'' i     2S3   2S6   s_h   3s_d  3s_v 
A_1g   1.00  1.00  1.00  1.00  1.00  1.00  1.00  1.00  1.00  1.00  1.00  1.00
A_2g   1.00  1.00  1.00  1.00 -1.00 -1.00  1.00  1.00  1.00  1.00 -1.00 -1.00
B_1g   1.00 -1.00  1.00 -1.00  1.00 -1.00  1.00 -1.00  1.00 -1.00  1.00 -1.00
B_2g   1.00 -1.00  1.00 -1.00 -1.00  1.00  1.00 -1.00  1.00 -1.00 -1.00  1.00
E_1g   2.00  1.00 -1.00 -2.00  0.00  0.00  2.00  1.00 -1.00 -2.00  0.00  0.00
E_2g   2.00 -1.00 -1.00  2.00  0.00  0.00  2.00 -1.00 -1.00  2.00  0.00  0.00
A_1u   1.00  1.00  1.00  1.00  1.00  1.00 -1.00 -1.00 -1.00 -1.00 -1.00 -1.00
A_2u   1.00  1.00  1.00  1.00 -1.00 -1.00 -1.00 -1.00 -1.00 -1.00  1.00  1.00
B_1u   1.00 -1.00  1.00 -1.00  1.00 -1.00 -1.00  1.00 -1.00  1.00 -1.00  1.00
B_2u   1.00 -1.00  1.00 -1.00 -1.00  1.00 -1.00  1.00 -1.00  1.00  1.00 -1.00
E_1u   2.00  1.00 -1.00 -2.00  0.00  0.00 -2.00 -1.00  1.00  2.00  0.00  0.00
E_2u   2.00 -1.00 -1.00  2.00  0.00  0.00 -2.00  1.00  1.00 -2.00  0.00  0.00

     the symmetry operations in each class and the name of the first element:

     E        1
                                                                 
     2C6      5    6
                                                                 
     2C3      7    8
                                                                 
     C2       2
                                                                 
     3C2'     4   12   11
                                                                 
     3C2''    3    9   10
                                                                 
     i       13
                                                                 
     2S3     17   18
                                                                 
     2S6     19   20
                                                                 
     s_h     14
                                                                 
     3s_d    16   24   23
                                                                 
     3s_v    15   21   22
                                                                 

     Band symmetry, D_6h(6/mmm) point group:

     e(  1 -  1) =    -38.48451  eV     1   --> A_1g           
     e(  2 -  2) =    -13.27346  eV     1   --> A_2u           
     e(  3 -  4) =    -12.19676  eV     2   --> E_1u           
     e(  5 -  5) =     10.32920  eV     1   --> A_2u           
     e(  6 -  6) =     13.14595  eV     1   --> A_1g           
     e(  7 -  8) =     20.42774  eV     2   --> E_1g           
     e(  9 - 10) =     20.82465  eV     2   --> E_2g           
     e( 11 - 12) =     20.99688  eV     2   --> E_2u           
     e( 13 - 13) =     22.98268  eV     1   --> A_1g           
     e( 14 - 14) =     28.15449  eV     1   --> B_2u           
     e( 15 - 15) =     33.78401  eV     1   --> B_1g           
     e( 16 - 16) =     35.19440  eV     1   --> A_2u           
     e( 17 - 18) =     35.84488  eV     2   --> E_1g           
     e( 19 - 19) =     41.34292  eV     1   --> A_1g           
     e( 20 - 20) =     46.73060  eV     1   -->   ?

 **************************************************************************
 
     BANDS        :      5.97s CPU      6.47s WALL

 
   This run was terminated on:  15:55: 2  28Apr2022            

=------------------------------------------------------------------------------=
   JOB DONE.
=------------------------------------------------------------------------------=
