
     Program BANDS v.7.0 starts on 28Apr2022 at  7:28: 9 

     This program is part of the open-source Quantum ESPRESSO suite
     for quantum simulation of materials; please cite
         "P. Giannozzi et al., J. Phys.:Condens. Matter 21 395502 (2009);
         "P. Giannozzi et al., J. Phys.:Condens. Matter 29 465901 (2017);
         "P. Giannozzi et al., J. Chem. Phys. 152 154105 (2020);
          URL http://www.quantum-espresso.org", 
     in publications or presentations arising from this work. More details at
     http://www.quantum-espresso.org/quote

     Parallel version (MPI), running on     8 processors

     MPI processes distributed on     1 nodes
     R & G space division:  proc/nbgrp/npool/nimage =       8
     1647 MiB available memory on the printing compute node when the environment starts
 

     Reading xml data from directory:

     ./tmp/mob2.save/

     IMPORTANT: XC functional enforced from input :
     Exchange-correlation= PBE
                           (   1   4   3   4   0   0   0)
     Any further DFT definition will be discarded
     Please, verify this is what you really want

 
     Parallelization info
     --------------------
     sticks:   dense  smooth     PW     G-vecs:    dense   smooth      PW
     Min          35      35     11                  499      499      97
     Max          36      36     12                  502      502     100
     Sum         283     283     91                 3999     3999     787
 
     Using Slab Decomposition
 
     Reading collected, re-writing distributed wavefunctions
     high-symmetry point:  0.0000 0.0000 0.0000   x coordinate   0.0000
     high-symmetry point:  0.0000 0.5774 0.0000   x coordinate   0.5774
     high-symmetry point:  0.3333 0.5774 0.0000   x coordinate   0.9107
     high-symmetry point:  0.0000 0.0000 0.0000   x coordinate   1.5774
     high-symmetry point:  0.0000 0.0000 0.4678   x coordinate   2.0452
     high-symmetry point:  0.0000 0.5774 0.4678   x coordinate   2.6225
     high-symmetry point:  0.3333 0.5774 0.4678   x coordinate   2.9559
     high-symmetry point:  0.0000 0.0000 0.4678   x coordinate   3.6225

     Plottable bands (eV) written to file mob2_bands.bands.gnu
     Bands written to file mob2_bands.bands

 **************************************************************************

                    xk=(   0.00000,   0.00000,   0.00000  )

     point group D_6h(6/mmm)
     there are 12 classes
     the character table:

       E     2C6   2C3   C2    3C2'  3C2'' i     2S3   2S6   s_h   3s_d  3s_v 
A_1g   1.00  1.00  1.00  1.00  1.00  1.00  1.00  1.00  1.00  1.00  1.00  1.00
A_2g   1.00  1.00  1.00  1.00 -1.00 -1.00  1.00  1.00  1.00  1.00 -1.00 -1.00
B_1g   1.00 -1.00  1.00 -1.00  1.00 -1.00  1.00 -1.00  1.00 -1.00  1.00 -1.00
B_2g   1.00 -1.00  1.00 -1.00 -1.00  1.00  1.00 -1.00  1.00 -1.00 -1.00  1.00
E_1g   2.00  1.00 -1.00 -2.00  0.00  0.00  2.00  1.00 -1.00 -2.00  0.00  0.00
E_2g   2.00 -1.00 -1.00  2.00  0.00  0.00  2.00 -1.00 -1.00  2.00  0.00  0.00
A_1u   1.00  1.00  1.00  1.00  1.00  1.00 -1.00 -1.00 -1.00 -1.00 -1.00 -1.00
A_2u   1.00  1.00  1.00  1.00 -1.00 -1.00 -1.00 -1.00 -1.00 -1.00  1.00  1.00
B_1u   1.00 -1.00  1.00 -1.00  1.00 -1.00 -1.00  1.00 -1.00  1.00 -1.00  1.00
B_2u   1.00 -1.00  1.00 -1.00 -1.00  1.00 -1.00  1.00 -1.00  1.00  1.00 -1.00
E_1u   2.00  1.00 -1.00 -2.00  0.00  0.00 -2.00 -1.00  1.00  2.00  0.00  0.00
E_2u   2.00 -1.00 -1.00  2.00  0.00  0.00 -2.00  1.00  1.00 -2.00  0.00  0.00

     the symmetry operations in each class and the name of the first element:

     E        1
                                                                 
     2C6      5    6
                                                                 
     2C3      7    8
                                                                 
     C2       2
                                                                 
     3C2'     4   12   11
                                                                 
     3C2''    3    9   10
                                                                 
     i       13
                                                                 
     2S3     17   18
                                                                 
     2S6     19   20
                                                                 
     s_h     14
                                                                 
     3s_d    16   24   23
                                                                 
     3s_v    15   21   22
                                                                 

     Band symmetry, D_6h(6/mmm) point group:

     e(  1 -  1) =    -36.82617  eV     1   --> A_1g           
     e(  2 -  2) =    -11.13186  eV     1   --> A_2u           
     e(  3 -  4) =    -10.47688  eV     2   --> E_1u           
     e(  5 -  5) =      8.59747  eV     1   --> A_1g           
     e(  6 -  6) =     18.61784  eV     1   --> A_1g           
     e(  7 -  8) =     18.98802  eV     2   --> E_2g           
     e(  9 -  9) =     21.22416  eV     1   --> A_2u           
     e( 10 - 11) =     25.42420  eV     2   --> E_1g           
     e( 12 - 13) =     28.38289  eV     2   --> E_2g           
     e( 14 - 15) =     30.14546  eV     2   --> E_1u           
     e( 16 - 16) =     31.11572  eV     1   --> B_2u           
     e( 17 - 17) =     34.50225  eV     1   --> B_1g           
     e( 18 - 18) =     37.21118  eV     1   --> A_1g           
     e( 19 - 20) =     43.13965  eV     2   --> E_2u           

 **************************************************************************

 **************************************************************************

                    xk=(   0.00000,   0.01443,   0.00000  )

     point group C_2v (mm2) 
     there are  4 classes
     the character table:

       E     C2    s_v   s_v' 
A_1    1.00  1.00  1.00  1.00
A_2    1.00  1.00 -1.00 -1.00
B_1    1.00 -1.00  1.00 -1.00
B_2    1.00 -1.00 -1.00  1.00

     the symmetry operations in each class and the name of the first element:

     E        1
                                                                 
     C2       2
                                                                 
     s_v      3
                                                                 
     s_v'     4
                                                                 

     Band symmetry, C_2v (mm2)  point group:

     e(  1 -  1) =    -36.82589  eV     1   --> A_1  D_1  S_1  
     e(  2 -  2) =    -11.13150  eV     1   --> B_2  D_4  S_4  
     e(  3 -  3) =    -10.47903  eV     1   --> A_1  D_1  S_1  
     e(  4 -  4) =    -10.47736  eV     1   --> B_1  D_3  S_3  
     e(  5 -  5) =      8.60144  eV     1   --> A_1  D_1  S_1  
     e(  6 -  6) =     18.62125  eV     1   --> A_1  D_1  S_1  
     e(  7 -  7) =     18.97992  eV     1   --> A_1  D_1  S_1  
     e(  8 -  8) =     18.99047  eV     1   --> B_1  D_3  S_3  
     e(  9 -  9) =     21.21218  eV     1   --> B_2  D_4  S_4  
     e( 10 - 10) =     25.42214  eV     1   --> A_2  D_2  S_2  
     e( 11 - 11) =     25.43932  eV     1   --> B_2  D_4  S_4  
     e( 12 - 12) =     28.34691  eV     1   --> A_1  D_1  S_1  
     e( 13 - 13) =     28.35195  eV     1   --> B_1  D_3  S_3  
     e( 14 - 14) =     30.17921  eV     1   --> A_1  D_1  S_1  
     e( 15 - 15) =     30.18549  eV     1   --> B_1  D_3  S_3  
     e( 16 - 16) =     31.13119  eV     1   --> A_1  D_1  S_1  
     e( 17 - 17) =     34.48458  eV     1   --> B_2  D_4  S_4  
     e( 18 - 18) =     37.21320  eV     1   --> A_1  D_1  S_1  
     e( 19 - 19) =     43.14788  eV     1   --> A_2  D_2  S_2  
     e( 20 - 20) =     43.16848  eV     1   --> B_2  D_4  S_4  

 **************************************************************************

 **************************************************************************

                    xk=(   0.00000,   0.02887,   0.00000  )

     Band symmetry, C_2v (mm2)  point group:

     e(  1 -  1) =    -36.82505  eV     1   --> A_1  D_1  S_1  
     e(  2 -  2) =    -11.13043  eV     1   --> B_2  D_4  S_4  
     e(  3 -  3) =    -10.48544  eV     1   --> A_1  D_1  S_1  
     e(  4 -  4) =    -10.47878  eV     1   --> B_1  D_3  S_3  
     e(  5 -  5) =      8.61335  eV     1   --> A_1  D_1  S_1  
     e(  6 -  6) =     18.63144  eV     1   --> A_1  D_1  S_1  
     e(  7 -  7) =     18.95576  eV     1   --> A_1  D_1  S_1  
     e(  8 -  8) =     18.99781  eV     1   --> B_1  D_3  S_3  
     e(  9 -  9) =     21.17683  eV     1   --> B_2  D_4  S_4  
     e( 10 - 10) =     25.41598  eV     1   --> A_2  D_2  S_2  
     e( 11 - 11) =     25.48406  eV     1   --> B_2  D_4  S_4  
     e( 12 - 12) =     28.24670  eV     1   --> A_1  D_1  S_1  
     e( 13 - 13) =     28.26666  eV     1   --> B_1  D_3  S_3  
     e( 14 - 14) =     30.27287  eV     1   --> A_1  D_1  S_1  
     e( 15 - 15) =     30.29805  eV     1   --> B_1  D_3  S_3  
     e( 16 - 16) =     31.17734  eV     1   --> A_1  D_1  S_1  
     e( 17 - 17) =     34.43245  eV     1   --> B_2  D_4  S_4  
     e( 18 - 18) =     37.21920  eV     1   --> A_1  D_1  S_1  
     e( 19 - 19) =     43.17256  eV     1   --> A_2  D_2  S_2  
     e( 20 - 20) =     43.25414  eV     1   --> B_2  D_4  S_4  

 **************************************************************************

 **************************************************************************

                    xk=(   0.00000,   0.04330,   0.00000  )

     Band symmetry, C_2v (mm2)  point group:

     e(  1 -  1) =    -36.82365  eV     1   --> A_1  D_1  S_1  
     e(  2 -  2) =    -11.12865  eV     1   --> B_2  D_4  S_4  
     e(  3 -  3) =    -10.49609  eV     1   --> A_1  D_1  S_1  
     e(  4 -  4) =    -10.48114  eV     1   --> B_1  D_3  S_3  
     e(  5 -  5) =      8.63251  eV     1   --> A_1  D_1  S_1  
     e(  6 -  6) =     18.64819  eV     1   --> A_1  D_1  S_1  
     e(  7 -  7) =     18.91596  eV     1   --> A_1  D_1  S_1  
     e(  8 -  8) =     19.00993  eV     1   --> B_1  D_3  S_3  
     e(  9 -  9) =     21.11793  eV     1   --> B_2  D_4  S_4  
     e( 10 - 10) =     25.40577  eV     1   --> A_2  D_2  S_2  
     e( 11 - 11) =     25.55659  eV     1   --> B_2  D_4  S_4  
     e( 12 - 12) =     28.09916  eV     1   --> A_1  D_1  S_1  
     e( 13 - 13) =     28.14345  eV     1   --> B_1  D_3  S_3  
     e( 14 - 14) =     30.40914  eV     1   --> A_1  D_1  S_1  
     e( 15 - 15) =     30.46674  eV     1   --> B_1  D_3  S_3  
     e( 16 - 16) =     31.25336  eV     1   --> A_1  D_1  S_1  
     e( 17 - 17) =     34.34829  eV     1   --> B_2  D_4  S_4  
     e( 18 - 18) =     37.22828  eV     1   --> A_1  D_1  S_1  
     e( 19 - 19) =     43.21356  eV     1   --> A_2  D_2  S_2  
     e( 20 - 20) =     43.39403  eV     1   --> B_2  D_4  S_4  

 **************************************************************************

 **************************************************************************

                    xk=(   0.00000,   0.05774,   0.00000  )

     Band symmetry, C_2v (mm2)  point group:

     e(  1 -  1) =    -36.82172  eV     1   --> A_1  D_1  S_1  
     e(  2 -  2) =    -11.12616  eV     1   --> B_2  D_4  S_4  
     e(  3 -  3) =    -10.51087  eV     1   --> A_1  D_1  S_1  
     e(  4 -  4) =    -10.48443  eV     1   --> B_1  D_3  S_3  
     e(  5 -  5) =      8.66022  eV     1   --> A_1  D_1  S_1  
     e(  6 -  6) =     18.67130  eV     1   --> A_1  D_1  S_1  
     e(  7 -  7) =     18.86119  eV     1   --> A_1  D_1  S_1  
     e(  8 -  8) =     19.02660  eV     1   --> B_1  D_3  S_3  
     e(  9 -  9) =     21.04137  eV     1   --> B_2  D_4  S_4  
     e( 10 - 10) =     25.39162  eV     1   --> A_2  D_2  S_2  
     e( 11 - 11) =     25.65430  eV     1   --> B_2  D_4  S_4  
     e( 12 - 12) =     27.91989  eV     1   --> A_1  D_1  S_1  
     e( 13 - 13) =     27.99754  eV     1   --> B_1  D_3  S_3  
     e( 14 - 14) =     30.57392  eV     1   --> A_1  D_1  S_1  
     e( 15 - 15) =     30.67610  eV     1   --> B_1  D_3  S_3  
     e( 16 - 16) =     31.35676  eV     1   --> A_1  D_1  S_1  
     e( 17 - 17) =     34.23545  eV     1   --> B_2  D_4  S_4  
     e( 18 - 18) =     37.24041  eV     1   --> A_1  D_1  S_1  
     e( 19 - 19) =     43.27068  eV     1   --> A_2  D_2  S_2  
     e( 20 - 20) =     43.58504  eV     1   --> B_2  D_4  S_4  

 **************************************************************************

 **************************************************************************

                    xk=(   0.00000,   0.07217,   0.00000  )

     Band symmetry, C_2v (mm2)  point group:

     e(  1 -  1) =    -36.81923  eV     1   --> A_1  D_1  S_1  
     e(  2 -  2) =    -11.12300  eV     1   --> B_2  D_4  S_4  
     e(  3 -  3) =    -10.52967  eV     1   --> A_1  D_1  S_1  
     e(  4 -  4) =    -10.48861  eV     1   --> B_1  D_3  S_3  
     e(  5 -  5) =      8.69550  eV     1   --> A_1  D_1  S_1  
     e(  6 -  6) =     18.70006  eV     1   --> A_1  D_1  S_1  
     e(  7 -  7) =     18.79336  eV     1   --> A_1  D_1  S_1  
     e(  8 -  8) =     19.04780  eV     1   --> B_1  D_3  S_3  
     e(  9 -  9) =     20.94850  eV     1   --> B_2  D_4  S_4  
     e( 10 - 10) =     25.37365  eV     1   --> A_2  D_2  S_2  
     e( 11 - 11) =     25.77396  eV     1   --> B_2  D_4  S_4  
     e( 12 - 12) =     27.72510  eV     1   --> A_1  D_1  S_1  
     e( 13 - 13) =     27.84137  eV     1   --> B_1  D_3  S_3  
     e( 14 - 14) =     30.75492  eV     1   --> A_1  D_1  S_1  
     e( 15 - 15) =     30.91448  eV     1   --> B_1  D_3  S_3  
     e( 16 - 16) =     31.48789  eV     1   --> A_1  D_1  S_1  
     e( 17 - 17) =     34.10060  eV     1   --> B_2  D_4  S_4  
     e( 18 - 18) =     37.25675  eV     1   --> A_1  D_1  S_1  
     e( 19 - 19) =     43.34421  eV     1   --> A_2  D_2  S_2  
     e( 20 - 20) =     43.82275  eV     1   --> B_2  D_4  S_4  

 **************************************************************************

 **************************************************************************

                    xk=(   0.00000,   0.08660,   0.00000  )

     Band symmetry, C_2v (mm2)  point group:

     e(  1 -  1) =    -36.81624  eV     1   --> A_1  D_1  S_1  
     e(  2 -  2) =    -11.11916  eV     1   --> B_2  D_4  S_4  
     e(  3 -  3) =    -10.55236  eV     1   --> A_1  D_1  S_1  
     e(  4 -  4) =    -10.49367  eV     1   --> B_1  D_3  S_3  
     e(  5 -  5) =      8.73806  eV     1   --> A_1  D_1  S_1  
     e(  6 -  6) =     18.70641  eV     1   --> A_1  D_1  S_1  
     e(  7 -  7) =     18.73963  eV     1   --> A_1  D_1  S_1  
     e(  8 -  8) =     19.07315  eV     1   --> B_1  D_3  S_3  
     e(  9 -  9) =     20.84084  eV     1   --> B_2  D_4  S_4  
     e( 10 - 10) =     25.35201  eV     1   --> A_2  D_2  S_2  
     e( 11 - 11) =     25.91192  eV     1   --> B_2  D_4  S_4  
     e( 12 - 12) =     27.51871  eV     1   --> A_1  D_1  S_1  
     e( 13 - 13) =     27.68155  eV     1   --> B_1  D_3  S_3  
     e( 14 - 14) =     30.94514  eV     1   --> A_1  D_1  S_1  
     e( 15 - 15) =     31.17333  eV     1   --> B_1  D_3  S_3  
     e( 16 - 16) =     31.64310  eV     1   --> A_1  D_1  S_1  
     e( 17 - 17) =     33.94555  eV     1   --> B_2  D_4  S_4  
     e( 18 - 18) =     37.27460  eV     1   --> A_1  D_1  S_1  
     e( 19 - 19) =     43.43310  eV     1   --> A_2  D_2  S_2  
     e( 20 - 20) =     44.10223  eV     1   --> B_2  D_4  S_4  

 **************************************************************************

 **************************************************************************

                    xk=(   0.00000,   0.10104,   0.00000  )

     Band symmetry, C_2v (mm2)  point group:

     e(  1 -  1) =    -36.81272  eV     1   --> A_1  D_1  S_1  
     e(  2 -  2) =    -11.11468  eV     1   --> B_2  D_4  S_4  
     e(  3 -  3) =    -10.57876  eV     1   --> A_1  D_1  S_1  
     e(  4 -  4) =    -10.49956  eV     1   --> B_1  D_3  S_3  
     e(  5 -  5) =      8.78838  eV     1   --> A_1  D_1  S_1  
     e(  6 -  6) =     18.61557  eV     1   --> A_1  D_1  S_1  
     e(  7 -  7) =     18.77679  eV     1   --> A_1  D_1  S_1  
     e(  8 -  8) =     19.10273  eV     1   --> B_1  D_3  S_3  
     e(  9 -  9) =     20.72344  eV     1   --> B_2  D_4  S_4  
     e( 10 - 10) =     25.32692  eV     1   --> A_2  D_2  S_2  
     e( 11 - 11) =     26.06505  eV     1   --> B_2  D_4  S_4  
     e( 12 - 12) =     27.30862  eV     1   --> A_1  D_1  S_1  
     e( 13 - 13) =     27.52419  eV     1   --> B_1  D_3  S_3  
     e( 14 - 14) =     31.14319  eV     1   --> A_1  D_1  S_1  
     e( 15 - 15) =     31.45049  eV     1   --> B_1  D_3  S_3  
     e( 16 - 16) =     31.82045  eV     1   --> A_1  D_1  S_1  
     e( 17 - 17) =     33.77821  eV     1   --> B_2  D_4  S_4  
     e( 18 - 18) =     37.29552  eV     1   --> A_1  D_1  S_1  
     e( 19 - 19) =     43.53840  eV     1   --> A_2  D_2  S_2  
     e( 20 - 20) =     44.41940  eV     1   --> B_2  D_4  S_4  

 **************************************************************************

 **************************************************************************

                    xk=(   0.00000,   0.11547,   0.00000  )

     Band symmetry, C_2v (mm2)  point group:

     e(  1 -  1) =    -36.80873  eV     1   --> A_1  D_1  S_1  
     e(  2 -  2) =    -11.10959  eV     1   --> B_2  D_4  S_4  
     e(  3 -  3) =    -10.60867  eV     1   --> A_1  D_1  S_1  
     e(  4 -  4) =    -10.50625  eV     1   --> B_1  D_3  S_3  
     e(  5 -  5) =      8.84580  eV     1   --> A_1  D_1  S_1  
     e(  6 -  6) =     18.51054  eV     1   --> A_1  D_1  S_1  
     e(  7 -  7) =     18.82088  eV     1   --> A_1  D_1  S_1  
     e(  8 -  8) =     19.13546  eV     1   --> B_1  D_3  S_3  
     e(  9 -  9) =     20.59756  eV     1   --> B_2  D_4  S_4  
     e( 10 - 10) =     25.29857  eV     1   --> A_2  D_2  S_2  
     e( 11 - 11) =     26.22966  eV     1   --> B_2  D_4  S_4  
     e( 12 - 12) =     27.09831  eV     1   --> A_1  D_1  S_1  
     e( 13 - 13) =     27.37064  eV     1   --> B_1  D_3  S_3  
     e( 14 - 14) =     31.34074  eV     1   --> A_1  D_1  S_1  
     e( 15 - 15) =     31.74174  eV     1   --> B_1  D_3  S_3  
     e( 16 - 16) =     32.01746  eV     1   --> A_1  D_1  S_1  
     e( 17 - 17) =     33.60075  eV     1   --> B_2  D_4  S_4  
     e( 18 - 18) =     37.31762  eV     1   --> A_1  D_1  S_1  
     e( 19 - 19) =     43.65858  eV     1   --> A_2  D_2  S_2  
     e( 20 - 20) =     44.76910  eV     1   --> B_2  D_4  S_4  

 **************************************************************************

 **************************************************************************

                    xk=(   0.00000,   0.12990,   0.00000  )

     Band symmetry, C_2v (mm2)  point group:

     e(  1 -  1) =    -36.80428  eV     1   --> A_1  D_1  S_1  
     e(  2 -  2) =    -11.10390  eV     1   --> B_2  D_4  S_4  
     e(  3 -  3) =    -10.64187  eV     1   --> A_1  D_1  S_1  
     e(  4 -  4) =    -10.51370  eV     1   --> B_1  D_3  S_3  
     e(  5 -  5) =      8.91022  eV     1   --> A_1  D_1  S_1  
     e(  6 -  6) =     18.39562  eV     1   --> A_1  D_1  S_1  
     e(  7 -  7) =     18.86871  eV     1   --> A_1  D_1  S_1  
     e(  8 -  8) =     19.17128  eV     1   --> B_1  D_3  S_3  
     e(  9 -  9) =     20.46560  eV     1   --> B_2  D_4  S_4  
     e( 10 - 10) =     25.26722  eV     1   --> A_2  D_2  S_2  
     e( 11 - 11) =     26.40243  eV     1   --> B_2  D_4  S_4  
     e( 12 - 12) =     26.89149  eV     1   --> A_1  D_1  S_1  
     e( 13 - 13) =     27.22384  eV     1   --> B_1  D_3  S_3  
     e( 14 - 14) =     31.53744  eV     1   --> A_1  D_1  S_1  
     e( 15 - 15) =     32.04507  eV     1   --> B_1  D_3  S_3  
     e( 16 - 16) =     32.23308  eV     1   --> A_1  D_1  S_1  
     e( 17 - 17) =     33.41940  eV     1   --> B_2  D_4  S_4  
     e( 18 - 18) =     37.34007  eV     1   --> A_1  D_1  S_1  
     e( 19 - 19) =     43.79375  eV     1   --> A_2  D_2  S_2  
     e( 20 - 20) =     45.14743  eV     1   --> B_2  D_4  S_4  

 **************************************************************************

 **************************************************************************

                    xk=(   0.00000,   0.14434,   0.00000  )

     Band symmetry, C_2v (mm2)  point group:

     e(  1 -  1) =    -36.79939  eV     1   --> A_1  D_1  S_1  
     e(  2 -  2) =    -11.09766  eV     1   --> B_2  D_4  S_4  
     e(  3 -  3) =    -10.67811  eV     1   --> A_1  D_1  S_1  
     e(  4 -  4) =    -10.52186  eV     1   --> B_1  D_3  S_3  
     e(  5 -  5) =      8.98142  eV     1   --> A_1  D_1  S_1  
     e(  6 -  6) =     18.27217  eV     1   --> A_1  D_1  S_1  
     e(  7 -  7) =     18.91920  eV     1   --> A_1  D_1  S_1  
     e(  8 -  8) =     19.20972  eV     1   --> B_1  D_3  S_3  
     e(  9 -  9) =     20.32945  eV     1   --> B_2  D_4  S_4  
     e( 10 - 10) =     25.23312  eV     1   --> A_2  D_2  S_2  
     e( 11 - 11) =     26.58005  eV     1   --> B_2  D_4  S_4  
     e( 12 - 12) =     26.69093  eV     1   --> A_1  D_1  S_1  
     e( 13 - 13) =     27.08535  eV     1   --> B_1  D_3  S_3  
     e( 14 - 14) =     31.73052  eV     1   --> A_1  D_1  S_1  
     e( 15 - 15) =     32.35905  eV     1   --> B_1  D_3  S_3  
     e( 16 - 16) =     32.46663  eV     1   --> A_1  D_1  S_1  
     e( 17 - 17) =     33.23879  eV     1   --> B_2  D_4  S_4  
     e( 18 - 18) =     37.36179  eV     1   --> A_1  D_1  S_1  
     e( 19 - 19) =     43.94355  eV     1   --> A_2  D_2  S_2  
     e( 20 - 20) =     45.55058  eV     1   --> B_2  D_4  S_4  

 **************************************************************************

 **************************************************************************

                    xk=(   0.00000,   0.15877,   0.00000  )

     Band symmetry, C_2v (mm2)  point group:

     e(  1 -  1) =    -36.79410  eV     1   --> A_1  D_1  S_1  
     e(  2 -  2) =    -11.09091  eV     1   --> B_2  D_4  S_4  
     e(  3 -  3) =    -10.71713  eV     1   --> A_1  D_1  S_1  
     e(  4 -  4) =    -10.53066  eV     1   --> B_1  D_3  S_3  
     e(  5 -  5) =      9.05915  eV     1   --> A_1  D_1  S_1  
     e(  6 -  6) =     18.14140  eV     1   --> A_1  D_1  S_1  
     e(  7 -  7) =     18.97120  eV     1   --> A_1  D_1  S_1  
     e(  8 -  8) =     19.25027  eV     1   --> B_1  D_3  S_3  
     e(  9 -  9) =     20.19074  eV     1   --> B_2  D_4  S_4  
     e( 10 - 10) =     25.19655  eV     1   --> A_2  D_2  S_2  
     e( 11 - 11) =     26.49912  eV     1   --> A_1  D_1  S_1  
     e( 12 - 12) =     26.75917  eV     1   --> B_2  D_4  S_4  
     e( 13 - 13) =     26.95633  eV     1   --> B_1  D_3  S_3  
     e( 14 - 14) =     31.91739  eV     1   --> A_1  D_1  S_1  
     e( 15 - 15) =     32.68264  eV     1   --> B_1  D_3  S_3  
     e( 16 - 16) =     32.71778  eV     1   --> A_1  D_1  S_1  
     e( 17 - 17) =     33.06337  eV     1   --> B_2  D_4  S_4  
     e( 18 - 18) =     37.38155  eV     1   --> A_1  D_1  S_1  
     e( 19 - 19) =     44.10758  eV     1   --> A_2  D_2  S_2  
     e( 20 - 20) =     45.97500  eV     1   --> B_2  D_4  S_4  

 **************************************************************************

 **************************************************************************

                    xk=(   0.00000,   0.17321,   0.00000  )

     Band symmetry, C_2v (mm2)  point group:

     e(  1 -  1) =    -36.78844  eV     1   --> A_1  D_1  S_1  
     e(  2 -  2) =    -11.08367  eV     1   --> B_2  D_4  S_4  
     e(  3 -  3) =    -10.75865  eV     1   --> A_1  D_1  S_1  
     e(  4 -  4) =    -10.54006  eV     1   --> B_1  D_3  S_3  
     e(  5 -  5) =      9.14315  eV     1   --> A_1  D_1  S_1  
     e(  6 -  6) =     18.00441  eV     1   --> A_1  D_1  S_1  
     e(  7 -  7) =     19.02347  eV     1   --> A_1  D_1  S_1  
     e(  8 -  8) =     19.29241  eV     1   --> B_1  D_3  S_3  
     e(  9 -  9) =     20.05082  eV     1   --> B_2  D_4  S_4  
     e( 10 - 10) =     25.15780  eV     1   --> A_2  D_2  S_2  
     e( 11 - 11) =     26.31837  eV     1   --> A_1  D_1  S_1  
     e( 12 - 12) =     26.83771  eV     1   --> B_1  D_3  S_3  
     e( 13 - 13) =     26.93635  eV     1   --> B_2  D_4  S_4  
     e( 14 - 14) =     32.09583  eV     1   --> A_1  D_1  S_1  
     e( 15 - 15) =     32.89751  eV     1   --> B_2  D_4  S_4  
     e( 16 - 16) =     32.98609  eV     1   --> A_1  D_1  S_1  
     e( 17 - 17) =     33.01505  eV     1   --> B_1  D_3  S_3  
     e( 18 - 18) =     37.39802  eV     1   --> A_1  D_1  S_1  
     e( 19 - 19) =     44.28540  eV     1   --> A_2  D_2  S_2  
     e( 20 - 20) =     46.41733  eV     1   --> B_2  D_4  S_4  

 **************************************************************************

 **************************************************************************

                    xk=(   0.00000,   0.18764,   0.00000  )

     Band symmetry, C_2v (mm2)  point group:

     e(  1 -  1) =    -36.78243  eV     1   --> A_1  D_1  S_1  
     e(  2 -  2) =    -11.07600  eV     1   --> B_2  D_4  S_4  
     e(  3 -  3) =    -10.80238  eV     1   --> A_1  D_1  S_1  
     e(  4 -  4) =    -10.55000  eV     1   --> B_1  D_3  S_3  
     e(  5 -  5) =      9.23314  eV     1   --> A_1  D_1  S_1  
     e(  6 -  6) =     17.86227  eV     1   --> A_1  D_1  S_1  
     e(  7 -  7) =     19.07462  eV     1   --> A_1  D_1  S_1  
     e(  8 -  8) =     19.33557  eV     1   --> B_1  D_3  S_3  
     e(  9 -  9) =     19.91081  eV     1   --> B_2  D_4  S_4  
     e( 10 - 10) =     25.11718  eV     1   --> A_2  D_2  S_2  
     e( 11 - 11) =     26.15093  eV     1   --> A_1  D_1  S_1  
     e( 12 - 12) =     26.73022  eV     1   --> B_1  D_3  S_3  
     e( 13 - 13) =     27.10801  eV     1   --> B_2  D_4  S_4  
     e( 14 - 14) =     32.26429  eV     1   --> A_1  D_1  S_1  
     e( 15 - 15) =     32.74558  eV     1   --> B_2  D_4  S_4  
     e( 16 - 16) =     33.27083  eV     1   --> A_1  D_1  S_1  
     e( 17 - 17) =     33.35564  eV     1   --> B_1  D_3  S_3  
     e( 18 - 18) =     37.40974  eV     1   --> A_1  D_1  S_1  
     e( 19 - 19) =     44.47656  eV     1   --> A_2  D_2  S_2  
     e( 20 - 20) =     46.87426  eV     1   --> B_2  D_4  S_4  

 **************************************************************************

 **************************************************************************

                    xk=(   0.00000,   0.20207,   0.00000  )

     Band symmetry, C_2v (mm2)  point group:

     e(  1 -  1) =    -36.77612  eV     1   --> A_1  D_1  S_1  
     e(  2 -  2) =    -11.06794  eV     1   --> B_2  D_4  S_4  
     e(  3 -  3) =    -10.84802  eV     1   --> A_1  D_1  S_1  
     e(  4 -  4) =    -10.56040  eV     1   --> B_1  D_3  S_3  
     e(  5 -  5) =      9.32899  eV     1   --> A_1  D_1  S_1  
     e(  6 -  6) =     17.71636  eV     1   --> A_1  D_1  S_1  
     e(  7 -  7) =     19.12316  eV     1   --> A_1  D_1  S_1  
     e(  8 -  8) =     19.37968  eV     1   --> B_1  D_3  S_3  
     e(  9 -  9) =     19.77169  eV     1   --> B_2  D_4  S_4  
     e( 10 - 10) =     25.07498  eV     1   --> A_2  D_2  S_2  
     e( 11 - 11) =     25.99956  eV     1   --> A_1  D_1  S_1  
     e( 12 - 12) =     26.63454  eV     1   --> B_1  D_3  S_3  
     e( 13 - 13) =     27.27037  eV     1   --> B_2  D_4  S_4  
     e( 14 - 14) =     32.42189  eV     1   --> A_1  D_1  S_1  
     e( 15 - 15) =     32.61247  eV     1   --> B_2  D_4  S_4  
     e( 16 - 16) =     33.57084  eV     1   --> A_1  D_1  S_1  
     e( 17 - 17) =     33.70609  eV     1   --> B_1  D_3  S_3  
     e( 18 - 18) =     37.41521  eV     1   --> A_1  D_1  S_1  
     e( 19 - 19) =     44.68082  eV     1   --> A_2  D_2  S_2  
     e( 20 - 20) =     47.34231  eV     1   --> B_2  D_4  S_4  

 **************************************************************************

 **************************************************************************

                    xk=(   0.00000,   0.21651,   0.00000  )

     Band symmetry, C_2v (mm2)  point group:

     e(  1 -  1) =    -36.76954  eV     1   --> A_1  D_1  S_1  
     e(  2 -  2) =    -11.05953  eV     1   --> B_2  D_4  S_4  
     e(  3 -  3) =    -10.89526  eV     1   --> A_1  D_1  S_1  
     e(  4 -  4) =    -10.57121  eV     1   --> B_1  D_3  S_3  
     e(  5 -  5) =      9.43011  eV     1   --> A_1  D_1  S_1  
     e(  6 -  6) =     17.56667  eV     1   --> A_1  D_1  S_1  
     e(  7 -  7) =     19.16751  eV     1   --> A_1  D_1  S_1  
     e(  8 -  8) =     19.42310  eV     1   --> B_1  D_3  S_3  
     e(  9 -  9) =     19.63422  eV     1   --> B_2  D_4  S_4  
     e( 10 - 10) =     25.03152  eV     1   --> A_2  D_2  S_2  
     e( 11 - 11) =     25.86530  eV     1   --> A_1  D_1  S_1  
     e( 12 - 12) =     26.55093  eV     1   --> B_1  D_3  S_3  
     e( 13 - 13) =     27.41948  eV     1   --> B_2  D_4  S_4  
     e( 14 - 14) =     32.50157  eV     1   --> B_2  D_4  S_4  
     e( 15 - 15) =     32.56791  eV     1   --> A_1  D_1  S_1  
     e( 16 - 16) =     33.88467  eV     1   --> A_1  D_1  S_1  
     e( 17 - 17) =     34.06151  eV     1   --> B_1  D_3  S_3  
     e( 18 - 18) =     37.41295  eV     1   --> A_1  D_1  S_1  
     e( 19 - 19) =     44.89718  eV     1   --> A_2  D_2  S_2  
     e( 20 - 20) =     47.81740  eV     1   --> B_2  D_4  S_4  

 **************************************************************************

 **************************************************************************

                    xk=(   0.00000,   0.23094,   0.00000  )

     Band symmetry, C_2v (mm2)  point group:

     e(  1 -  1) =    -36.76274  eV     1   --> A_1  D_1  S_1  
     e(  2 -  2) =    -11.05084  eV     1   --> B_2  D_4  S_4  
     e(  3 -  3) =    -10.94378  eV     1   --> A_1  D_1  S_1  
     e(  4 -  4) =    -10.58235  eV     1   --> B_1  D_3  S_3  
     e(  5 -  5) =      9.53618  eV     1   --> A_1  D_1  S_1  
     e(  6 -  6) =     17.41454  eV     1   --> A_1  D_1  S_1  
     e(  7 -  7) =     19.20605  eV     1   --> A_1  D_1  S_1  
     e(  8 -  8) =     19.46658  eV     1   --> B_1  D_3  S_3  
     e(  9 -  9) =     19.49916  eV     1   --> B_2  D_4  S_4  
     e( 10 - 10) =     24.98709  eV     1   --> A_2  D_2  S_2  
     e( 11 - 11) =     25.75074  eV     1   --> A_1  D_1  S_1  
     e( 12 - 12) =     26.48074  eV     1   --> B_1  D_3  S_3  
     e( 13 - 13) =     27.55180  eV     1   --> B_2  D_4  S_4  
     e( 14 - 14) =     32.41864  eV     1   --> B_2  D_4  S_4  
     e( 15 - 15) =     32.70296  eV     1   --> A_1  D_1  S_1  
     e( 16 - 16) =     34.21070  eV     1   --> A_1  D_1  S_1  
     e( 17 - 17) =     34.42362  eV     1   --> B_1  D_3  S_3  
     e( 18 - 18) =     37.39928  eV     1   --> A_1  D_1  S_1  
     e( 19 - 19) =     45.12545  eV     1   --> A_2  D_2  S_2  
     e( 20 - 20) =     48.29457  eV     1   --> B_2  D_4  S_4  

 **************************************************************************

 **************************************************************************

                    xk=(   0.00000,   0.24537,   0.00000  )

     Band symmetry, C_2v (mm2)  point group:

     e(  1 -  1) =    -36.75575  eV     1   --> A_1  D_1  S_1  
     e(  2 -  2) =    -11.04190  eV     1   --> B_2  D_4  S_4  
     e(  3 -  3) =    -10.99326  eV     1   --> A_1  D_1  S_1  
     e(  4 -  4) =    -10.59375  eV     1   --> B_1  D_3  S_3  
     e(  5 -  5) =      9.64722  eV     1   --> A_1  D_1  S_1  
     e(  6 -  6) =     17.26040  eV     1   --> A_1  D_1  S_1  
     e(  7 -  7) =     19.23729  eV     1   --> A_1  D_1  S_1  
     e(  8 -  8) =     19.36691  eV     1   --> B_2  D_4  S_4  
     e(  9 -  9) =     19.50802  eV     1   --> B_1  D_3  S_3  
     e( 10 - 10) =     24.94200  eV     1   --> A_2  D_2  S_2  
     e( 11 - 11) =     25.65794  eV     1   --> A_1  D_1  S_1  
     e( 12 - 12) =     26.42239  eV     1   --> B_1  D_3  S_3  
     e( 13 - 13) =     27.66303  eV     1   --> B_2  D_4  S_4  
     e( 14 - 14) =     32.36545  eV     1   --> B_2  D_4  S_4  
     e( 15 - 15) =     32.82550  eV     1   --> A_1  D_1  S_1  
     e( 16 - 16) =     34.54705  eV     1   --> A_1  D_1  S_1  
     e( 17 - 17) =     34.79207  eV     1   --> B_1  D_3  S_3  
     e( 18 - 18) =     37.37752  eV     1   --> A_1  D_1  S_1  
     e( 19 - 19) =     45.36484  eV     1   --> A_2  D_2  S_2  
     e( 20 - 20) =     48.48371  eV     1   --> A_1  D_1  S_1  

 **************************************************************************

 **************************************************************************

                    xk=(   0.00000,   0.25981,   0.00000  )

     Band symmetry, C_2v (mm2)  point group:

     e(  1 -  1) =    -36.74862  eV     1   --> A_1  D_1  S_1  
     e(  2 -  2) =    -11.04339  eV     1   --> A_1  D_1  S_1  
     e(  3 -  3) =    -11.03278  eV     1   --> B_2  D_4  S_4  
     e(  4 -  4) =    -10.60534  eV     1   --> B_1  D_3  S_3  
     e(  5 -  5) =      9.76276  eV     1   --> A_1  D_1  S_1  
     e(  6 -  6) =     17.10497  eV     1   --> A_1  D_1  S_1  
     e(  7 -  7) =     19.23805  eV     1   --> B_2  D_4  S_4  
     e(  8 -  8) =     19.25980  eV     1   --> A_1  D_1  S_1  
     e(  9 -  9) =     19.54768  eV     1   --> B_1  D_3  S_3  
     e( 10 - 10) =     24.89655  eV     1   --> A_2  D_2  S_2  
     e( 11 - 11) =     25.58860  eV     1   --> A_1  D_1  S_1  
     e( 12 - 12) =     26.37694  eV     1   --> B_1  D_3  S_3  
     e( 13 - 13) =     27.75051  eV     1   --> B_2  D_4  S_4  
     e( 14 - 14) =     32.34609  eV     1   --> B_2  D_4  S_4  
     e( 15 - 15) =     32.93620  eV     1   --> A_1  D_1  S_1  
     e( 16 - 16) =     34.89165  eV     1   --> A_1  D_1  S_1  
     e( 17 - 17) =     35.16641  eV     1   --> B_1  D_3  S_3  
     e( 18 - 18) =     37.34488  eV     1   --> A_1  D_1  S_1  
     e( 19 - 19) =     45.61487  eV     1   --> A_2  D_2  S_2  
     e( 20 - 20) =     48.38047  eV     1   --> A_1  D_1  S_1  

 **************************************************************************

 **************************************************************************

                    xk=(   0.00000,   0.27424,   0.00000  )

     Band symmetry, C_2v (mm2)  point group:

     e(  1 -  1) =    -36.74138  eV     1   --> A_1  D_1  S_1  
     e(  2 -  2) =    -11.09384  eV     1   --> A_1  D_1  S_1  
     e(  3 -  3) =    -11.02353  eV     1   --> B_2  D_4  S_4  
     e(  4 -  4) =    -10.61705  eV     1   --> B_1  D_3  S_3  
     e(  5 -  5) =      9.88278  eV     1   --> A_1  D_1  S_1  
     e(  6 -  6) =     16.94880  eV     1   --> A_1  D_1  S_1  
     e(  7 -  7) =     19.11320  eV     1   --> B_2  D_4  S_4  
     e(  8 -  8) =     19.27250  eV     1   --> A_1  D_1  S_1  
     e(  9 -  9) =     19.58511  eV     1   --> B_1  D_3  S_3  
     e( 10 - 10) =     24.85104  eV     1   --> A_2  D_2  S_2  
     e( 11 - 11) =     25.54433  eV     1   --> A_1  D_1  S_1  
     e( 12 - 12) =     26.34441  eV     1   --> B_1  D_3  S_3  
     e( 13 - 13) =     27.81273  eV     1   --> B_2  D_4  S_4  
     e( 14 - 14) =     32.36240  eV     1   --> B_2  D_4  S_4  
     e( 15 - 15) =     33.03553  eV     1   --> A_1  D_1  S_1  
     e( 16 - 16) =     35.24193  eV     1   --> A_1  D_1  S_1  
     e( 17 - 17) =     35.54651  eV     1   --> B_1  D_3  S_3  
     e( 18 - 18) =     37.30203  eV     1   --> A_1  D_1  S_1  
     e( 19 - 19) =     45.87531  eV     1   --> A_2  D_2  S_2  
     e( 20 - 20) =     48.25553  eV     1   --> A_1  D_1  S_1  

 **************************************************************************

 **************************************************************************

                    xk=(   0.00000,   0.28868,   0.00000  )

     Band symmetry, C_2v (mm2)  point group:

     e(  1 -  1) =    -36.73410  eV     1   --> A_1  D_1  S_1  
     e(  2 -  2) =    -11.14431  eV     1   --> A_1  D_1  S_1  
     e(  3 -  3) =    -11.01421  eV     1   --> B_2  D_4  S_4  
     e(  4 -  4) =    -10.62881  eV     1   --> B_1  D_3  S_3  
     e(  5 -  5) =     10.00634  eV     1   --> A_1  D_1  S_1  
     e(  6 -  6) =     16.79228  eV     1   --> A_1  D_1  S_1  
     e(  7 -  7) =     18.99227  eV     1   --> B_2  D_4  S_4  
     e(  8 -  8) =     19.27441  eV     1   --> A_1  D_1  S_1  
     e(  9 -  9) =     19.61991  eV     1   --> B_1  D_3  S_3  
     e( 10 - 10) =     24.80573  eV     1   --> A_2  D_2  S_2  
     e( 11 - 11) =     25.52575  eV     1   --> A_1  D_1  S_1  
     e( 12 - 12) =     26.32454  eV     1   --> B_1  D_3  S_3  
     e( 13 - 13) =     27.84865  eV     1   --> B_2  D_4  S_4  
     e( 14 - 14) =     32.41458  eV     1   --> B_2  D_4  S_4  
     e( 15 - 15) =     33.12230  eV     1   --> A_1  D_1  S_1  
     e( 16 - 16) =     35.59368  eV     1   --> A_1  D_1  S_1  
     e( 17 - 17) =     35.93133  eV     1   --> B_1  D_3  S_3  
     e( 18 - 18) =     37.25005  eV     1   --> A_1  D_1  S_1  
     e( 19 - 19) =     46.14462  eV     1   --> A_2  D_2  S_2  
     e( 20 - 20) =     48.10896  eV     1   --> A_1  D_1  S_1  

 **************************************************************************

 **************************************************************************

                    xk=(   0.00000,   0.30311,   0.00000  )

     Band symmetry, C_2v (mm2)  point group:

     e(  1 -  1) =    -36.72680  eV     1   --> A_1  D_1  S_1  
     e(  2 -  2) =    -11.19448  eV     1   --> A_1  D_1  S_1  
     e(  3 -  3) =    -11.00487  eV     1   --> B_2  D_4  S_4  
     e(  4 -  4) =    -10.64054  eV     1   --> B_1  D_3  S_3  
     e(  5 -  5) =     10.13349  eV     1   --> A_1  D_1  S_1  
     e(  6 -  6) =     16.63600  eV     1   --> A_1  D_1  S_1  
     e(  7 -  7) =     18.87582  eV     1   --> B_2  D_4  S_4  
     e(  8 -  8) =     19.26519  eV     1   --> A_1  D_1  S_1  
     e(  9 -  9) =     19.65205  eV     1   --> B_1  D_3  S_3  
     e( 10 - 10) =     24.76091  eV     1   --> A_2  D_2  S_2  
     e( 11 - 11) =     25.53371  eV     1   --> A_1  D_1  S_1  
     e( 12 - 12) =     26.31706  eV     1   --> B_1  D_3  S_3  
     e( 13 - 13) =     27.85970  eV     1   --> B_2  D_4  S_4  
     e( 14 - 14) =     32.50127  eV     1   --> B_2  D_4  S_4  
     e( 15 - 15) =     33.19692  eV     1   --> A_1  D_1  S_1  
     e( 16 - 16) =     35.93917  eV     1   --> A_1  D_1  S_1  
     e( 17 - 17) =     36.32286  eV     1   --> B_1  D_3  S_3  
     e( 18 - 18) =     37.19573  eV     1   --> A_1  D_1  S_1  
     e( 19 - 19) =     46.42251  eV     1   --> A_2  D_2  S_2  
     e( 20 - 20) =     47.94539  eV     1   --> A_1  D_1  S_1  

 **************************************************************************

 **************************************************************************

                    xk=(   0.00000,   0.31754,   0.00000  )

     Band symmetry, C_2v (mm2)  point group:

     e(  1 -  1) =    -36.71954  eV     1   --> A_1  D_1  S_1  
     e(  2 -  2) =    -11.24405  eV     1   --> A_1  D_1  S_1  
     e(  3 -  3) =    -10.99557  eV     1   --> B_2  D_4  S_4  
     e(  4 -  4) =    -10.65217  eV     1   --> B_1  D_3  S_3  
     e(  5 -  5) =     10.26254  eV     1   --> A_1  D_1  S_1  
     e(  6 -  6) =     16.47987  eV     1   --> A_1  D_1  S_1  
     e(  7 -  7) =     18.76409  eV     1   --> B_2  D_4  S_4  
     e(  8 -  8) =     19.24489  eV     1   --> A_1  D_1  S_1  
     e(  9 -  9) =     19.68075  eV     1   --> B_1  D_3  S_3  
     e( 10 - 10) =     24.71683  eV     1   --> A_2  D_2  S_2  
     e( 11 - 11) =     25.56784  eV     1   --> A_1  D_1  S_1  
     e( 12 - 12) =     26.32144  eV     1   --> B_1  D_3  S_3  
     e( 13 - 13) =     27.84828  eV     1   --> B_2  D_4  S_4  
     e( 14 - 14) =     32.61964  eV     1   --> B_2  D_4  S_4  
     e( 15 - 15) =     33.25899  eV     1   --> A_1  D_1  S_1  
     e( 16 - 16) =     36.25751  eV     1   --> A_1  D_1  S_1  
     e( 17 - 17) =     36.71618  eV     1   --> B_1  D_3  S_3  
     e( 18 - 18) =     37.15693  eV     1   --> A_1  D_1  S_1  
     e( 19 - 19) =     46.70817  eV     1   --> A_2  D_2  S_2  
     e( 20 - 20) =     47.76181  eV     1   --> A_1  D_1  S_1  

 **************************************************************************

 **************************************************************************

                    xk=(   0.00000,   0.33198,   0.00000  )

     Band symmetry, C_2v (mm2)  point group:

     e(  1 -  1) =    -36.71235  eV     1   --> A_1  D_1  S_1  
     e(  2 -  2) =    -11.29273  eV     1   --> A_1  D_1  S_1  
     e(  3 -  3) =    -10.98637  eV     1   --> B_2  D_4  S_4  
     e(  4 -  4) =    -10.66364  eV     1   --> B_1  D_3  S_3  
     e(  5 -  5) =     10.39551  eV     1   --> A_1  D_1  S_1  
     e(  6 -  6) =     16.32443  eV     1   --> A_1  D_1  S_1  
     e(  7 -  7) =     18.65736  eV     1   --> B_2  D_4  S_4  
     e(  8 -  8) =     19.21404  eV     1   --> A_1  D_1  S_1  
     e(  9 -  9) =     19.70619  eV     1   --> B_1  D_3  S_3  
     e( 10 - 10) =     24.67373  eV     1   --> A_2  D_2  S_2  
     e( 11 - 11) =     25.62819  eV     1   --> A_1  D_1  S_1  
     e( 12 - 12) =     26.33711  eV     1   --> B_1  D_3  S_3  
     e( 13 - 13) =     27.81777  eV     1   --> B_2  D_4  S_4  
     e( 14 - 14) =     32.76583  eV     1   --> B_2  D_4  S_4  
     e( 15 - 15) =     33.30800  eV     1   --> A_1  D_1  S_1  
     e( 16 - 16) =     36.49164  eV     1   --> A_1  D_1  S_1  
     e( 17 - 17) =     37.11296  eV     1   --> B_1  D_3  S_3  
     e( 18 - 18) =     37.19431  eV     1   --> A_1  D_1  S_1  
     e( 19 - 19) =     47.00075  eV     1   --> A_2  D_2  S_2  
     e( 20 - 20) =     47.49082  eV     1   --> B_1  D_3  S_3  

 **************************************************************************

 **************************************************************************

                    xk=(   0.00000,   0.34641,   0.00000  )

     Band symmetry, C_2v (mm2)  point group:

     e(  1 -  1) =    -36.70531  eV     1   --> A_1  D_1  S_1  
     e(  2 -  2) =    -11.34025  eV     1   --> A_1  D_1  S_1  
     e(  3 -  3) =    -10.97733  eV     1   --> B_2  D_4  S_4  
     e(  4 -  4) =    -10.67486  eV     1   --> B_1  D_3  S_3  
     e(  5 -  5) =     10.53023  eV     1   --> A_1  D_1  S_1  
     e(  6 -  6) =     16.16983  eV     1   --> A_1  D_1  S_1  
     e(  7 -  7) =     18.55574  eV     1   --> B_2  D_4  S_4  
     e(  8 -  8) =     19.17353  eV     1   --> A_1  D_1  S_1  
     e(  9 -  9) =     19.72812  eV     1   --> B_1  D_3  S_3  
     e( 10 - 10) =     24.63186  eV     1   --> A_2  D_2  S_2  
     e( 11 - 11) =     25.71284  eV     1   --> A_1  D_1  S_1  
     e( 12 - 12) =     26.36310  eV     1   --> B_1  D_3  S_3  
     e( 13 - 13) =     27.77093  eV     1   --> B_2  D_4  S_4  
     e( 14 - 14) =     32.93492  eV     1   --> B_2  D_4  S_4  
     e( 15 - 15) =     33.34281  eV     1   --> A_1  D_1  S_1  
     e( 16 - 16) =     36.56028  eV     1   --> A_1  D_1  S_1  
     e( 17 - 17) =     37.38394  eV     1   --> A_1  D_1  S_1  
     e( 18 - 18) =     37.51102  eV     1   --> B_1  D_3  S_3  
     e( 19 - 19) =     47.04050  eV     1   --> B_1  D_3  S_3  
     e( 20 - 20) =     47.29921  eV     1   --> A_2  D_2  S_2  

 **************************************************************************

 **************************************************************************

                    xk=(   0.00000,   0.36084,   0.00000  )

     Band symmetry, C_2v (mm2)  point group:

     e(  1 -  1) =    -36.69842  eV     1   --> A_1  D_1  S_1  
     e(  2 -  2) =    -11.38632  eV     1   --> A_1  D_1  S_1  
     e(  3 -  3) =    -10.96850  eV     1   --> B_2  D_4  S_4  
     e(  4 -  4) =    -10.68578  eV     1   --> B_1  D_3  S_3  
     e(  5 -  5) =     10.66760  eV     1   --> A_1  D_1  S_1  
     e(  6 -  6) =     16.01640  eV     1   --> A_1  D_1  S_1  
     e(  7 -  7) =     18.45957  eV     1   --> B_2  D_4  S_4  
     e(  8 -  8) =     19.12468  eV     1   --> A_1  D_1  S_1  
     e(  9 -  9) =     19.74696  eV     1   --> B_1  D_3  S_3  
     e( 10 - 10) =     24.59144  eV     1   --> A_2  D_2  S_2  
     e( 11 - 11) =     25.82162  eV     1   --> A_1  D_1  S_1  
     e( 12 - 12) =     26.39863  eV     1   --> B_1  D_3  S_3  
     e( 13 - 13) =     27.71339  eV     1   --> B_2  D_4  S_4  
     e( 14 - 14) =     33.12337  eV     1   --> B_2  D_4  S_4  
     e( 15 - 15) =     33.36311  eV     1   --> A_1  D_1  S_1  
     e( 16 - 16) =     36.50623  eV     1   --> A_1  D_1  S_1  
     e( 17 - 17) =     37.69097  eV     1   --> A_1  D_1  S_1  
     e( 18 - 18) =     37.91229  eV     1   --> B_1  D_3  S_3  
     e( 19 - 19) =     46.60808  eV     1   --> B_1  D_3  S_3  
     e( 20 - 20) =     47.18259  eV     1   --> A_1  D_1  S_1  

 **************************************************************************

 **************************************************************************

                    xk=(   0.00000,   0.37528,   0.00000  )

     Band symmetry, C_2v (mm2)  point group:

     e(  1 -  1) =    -36.69174  eV     1   --> A_1  D_1  S_1  
     e(  2 -  2) =    -11.43069  eV     1   --> A_1  D_1  S_1  
     e(  3 -  3) =    -10.95995  eV     1   --> B_2  D_4  S_4  
     e(  4 -  4) =    -10.69632  eV     1   --> B_1  D_3  S_3  
     e(  5 -  5) =     10.80653  eV     1   --> A_1  D_1  S_1  
     e(  6 -  6) =     15.86445  eV     1   --> A_1  D_1  S_1  
     e(  7 -  7) =     18.36894  eV     1   --> B_2  D_4  S_4  
     e(  8 -  8) =     19.06903  eV     1   --> A_1  D_1  S_1  
     e(  9 -  9) =     19.76266  eV     1   --> B_1  D_3  S_3  
     e( 10 - 10) =     24.55267  eV     1   --> A_2  D_2  S_2  
     e( 11 - 11) =     25.95210  eV     1   --> A_1  D_1  S_1  
     e( 12 - 12) =     26.44244  eV     1   --> B_1  D_3  S_3  
     e( 13 - 13) =     27.64778  eV     1   --> B_2  D_4  S_4  
     e( 14 - 14) =     33.32614  eV     1   --> B_2  D_4  S_4  
     e( 15 - 15) =     33.36783  eV     1   --> A_1  D_1  S_1  
     e( 16 - 16) =     36.40303  eV     1   --> A_1  D_1  S_1  
     e( 17 - 17) =     38.04196  eV     1   --> A_1  D_1  S_1  
     e( 18 - 18) =     38.31449  eV     1   --> B_1  D_3  S_3  
     e( 19 - 19) =     46.19392  eV     1   --> B_1  D_3  S_3  
     e( 20 - 20) =     46.98443  eV     1   --> A_1  D_1  S_1  

 **************************************************************************

 **************************************************************************

                    xk=(   0.00000,   0.38971,   0.00000  )

     Band symmetry, C_2v (mm2)  point group:

     e(  1 -  1) =    -36.68531  eV     1   --> A_1  D_1  S_1  
     e(  2 -  2) =    -11.47310  eV     1   --> A_1  D_1  S_1  
     e(  3 -  3) =    -10.95171  eV     1   --> B_2  D_4  S_4  
     e(  4 -  4) =    -10.70643  eV     1   --> B_1  D_3  S_3  
     e(  5 -  5) =     10.94651  eV     1   --> A_1  D_1  S_1  
     e(  6 -  6) =     15.71393  eV     1   --> A_1  D_1  S_1  
     e(  7 -  7) =     18.28399  eV     1   --> B_2  D_4  S_4  
     e(  8 -  8) =     19.00823  eV     1   --> A_1  D_1  S_1  
     e(  9 -  9) =     19.77541  eV     1   --> B_1  D_3  S_3  
     e( 10 - 10) =     24.51575  eV     1   --> A_2  D_2  S_2  
     e( 11 - 11) =     26.10195  eV     1   --> A_1  D_1  S_1  
     e( 12 - 12) =     26.49326  eV     1   --> B_1  D_3  S_3  
     e( 13 - 13) =     27.57714  eV     1   --> B_2  D_4  S_4  
     e( 14 - 14) =     33.35439  eV     1   --> A_1  D_1  S_1  
     e( 15 - 15) =     33.53894  eV     1   --> B_2  D_4  S_4  
     e( 16 - 16) =     36.27771  eV     1   --> A_1  D_1  S_1  
     e( 17 - 17) =     38.40837  eV     1   --> A_1  D_1  S_1  
     e( 18 - 18) =     38.71650  eV     1   --> B_1  D_3  S_3  
     e( 19 - 19) =     45.79924  eV     1   --> B_1  D_3  S_3  
     e( 20 - 20) =     46.78464  eV     1   --> A_1  D_1  S_1  

 **************************************************************************

 **************************************************************************

                    xk=(   0.00000,   0.40415,   0.00000  )

     Band symmetry, C_2v (mm2)  point group:

     e(  1 -  1) =    -36.67918  eV     1   --> A_1  D_1  S_1  
     e(  2 -  2) =    -11.51334  eV     1   --> A_1  D_1  S_1  
     e(  3 -  3) =    -10.94385  eV     1   --> B_2  D_4  S_4  
     e(  4 -  4) =    -10.71605  eV     1   --> B_1  D_3  S_3  
     e(  5 -  5) =     11.08667  eV     1   --> A_1  D_1  S_1  
     e(  6 -  6) =     15.56569  eV     1   --> A_1  D_1  S_1  
     e(  7 -  7) =     18.20478  eV     1   --> B_2  D_4  S_4  
     e(  8 -  8) =     18.94397  eV     1   --> A_1  D_1  S_1  
     e(  9 -  9) =     19.78500  eV     1   --> B_1  D_3  S_3  
     e( 10 - 10) =     24.48085  eV     1   --> A_2  D_2  S_2  
     e( 11 - 11) =     26.26893  eV     1   --> A_1  D_1  S_1  
     e( 12 - 12) =     26.54949  eV     1   --> B_1  D_3  S_3  
     e( 13 - 13) =     27.50517  eV     1   --> B_2  D_4  S_4  
     e( 14 - 14) =     33.32195  eV     1   --> A_1  D_1  S_1  
     e( 15 - 15) =     33.75708  eV     1   --> B_2  D_4  S_4  
     e( 16 - 16) =     36.14623  eV     1   --> A_1  D_1  S_1  
     e( 17 - 17) =     38.77605  eV     1   --> A_1  D_1  S_1  
     e( 18 - 18) =     39.11697  eV     1   --> B_1  D_3  S_3  
     e( 19 - 19) =     45.42407  eV     1   --> B_1  D_3  S_3  
     e( 20 - 20) =     46.58206  eV     1   --> A_1  D_1  S_1  

 **************************************************************************

 **************************************************************************

                    xk=(   0.00000,   0.41858,   0.00000  )

     Band symmetry, C_2v (mm2)  point group:

     e(  1 -  1) =    -36.67339  eV     1   --> A_1  D_1  S_1  
     e(  2 -  2) =    -11.55118  eV     1   --> A_1  D_1  S_1  
     e(  3 -  3) =    -10.93641  eV     1   --> B_2  D_4  S_4  
     e(  4 -  4) =    -10.72511  eV     1   --> B_1  D_3  S_3  
     e(  5 -  5) =     11.22694  eV     1   --> A_1  D_1  S_1  
     e(  6 -  6) =     15.41927  eV     1   --> A_1  D_1  S_1  
     e(  7 -  7) =     18.13157  eV     1   --> B_2  D_4  S_4  
     e(  8 -  8) =     18.87813  eV     1   --> A_1  D_1  S_1  
     e(  9 -  9) =     19.79263  eV     1   --> B_1  D_3  S_3  
     e( 10 - 10) =     24.44815  eV     1   --> A_2  D_2  S_2  
     e( 11 - 11) =     26.45015  eV     1   --> A_1  D_1  S_1  
     e( 12 - 12) =     26.60997  eV     1   --> B_1  D_3  S_3  
     e( 13 - 13) =     27.43208  eV     1   --> B_2  D_4  S_4  
     e( 14 - 14) =     33.26907  eV     1   --> A_1  D_1  S_1  
     e( 15 - 15) =     33.97798  eV     1   --> B_2  D_4  S_4  
     e( 16 - 16) =     36.01431  eV     1   --> A_1  D_1  S_1  
     e( 17 - 17) =     39.14703  eV     1   --> A_1  D_1  S_1  
     e( 18 - 18) =     39.51422  eV     1   --> B_1  D_3  S_3  
     e( 19 - 19) =     45.07219  eV     1   --> B_1  D_3  S_3  
     e( 20 - 20) =     46.38112  eV     1   --> A_1  D_1  S_1  

 **************************************************************************

 **************************************************************************

                    xk=(   0.00000,   0.43301,   0.00000  )

     Band symmetry, C_2v (mm2)  point group:

     e(  1 -  1) =    -36.66796  eV     1   --> A_1  D_1  S_1  
     e(  2 -  2) =    -11.58642  eV     1   --> A_1  D_1  S_1  
     e(  3 -  3) =    -10.92945  eV     1   --> B_2  D_4  S_4  
     e(  4 -  4) =    -10.73358  eV     1   --> B_1  D_3  S_3  
     e(  5 -  5) =     11.36624  eV     1   --> A_1  D_1  S_1  
     e(  6 -  6) =     15.27559  eV     1   --> A_1  D_1  S_1  
     e(  7 -  7) =     18.06439  eV     1   --> B_2  D_4  S_4  
     e(  8 -  8) =     18.81231  eV     1   --> A_1  D_1  S_1  
     e(  9 -  9) =     19.79816  eV     1   --> B_1  D_3  S_3  
     e( 10 - 10) =     24.41779  eV     1   --> A_2  D_2  S_2  
     e( 11 - 11) =     26.64280  eV     1   --> A_1  D_1  S_1  
     e( 12 - 12) =     26.67292  eV     1   --> B_1  D_3  S_3  
     e( 13 - 13) =     27.36074  eV     1   --> B_2  D_4  S_4  
     e( 14 - 14) =     33.19508  eV     1   --> A_1  D_1  S_1  
     e( 15 - 15) =     34.19732  eV     1   --> B_2  D_4  S_4  
     e( 16 - 16) =     35.88852  eV     1   --> A_1  D_1  S_1  
     e( 17 - 17) =     39.51462  eV     1   --> A_1  D_1  S_1  
     e( 18 - 18) =     39.90621  eV     1   --> B_1  D_3  S_3  
     e( 19 - 19) =     44.74364  eV     1   --> B_1  D_3  S_3  
     e( 20 - 20) =     46.17948  eV     1   --> A_1  D_1  S_1  

 **************************************************************************

 **************************************************************************

                    xk=(   0.00000,   0.44745,   0.00000  )

     Band symmetry, C_2v (mm2)  point group:

     e(  1 -  1) =    -36.66294  eV     1   --> A_1  D_1  S_1  
     e(  2 -  2) =    -11.61888  eV     1   --> A_1  D_1  S_1  
     e(  3 -  3) =    -10.92301  eV     1   --> B_2  D_4  S_4  
     e(  4 -  4) =    -10.74139  eV     1   --> B_1  D_3  S_3  
     e(  5 -  5) =     11.50360  eV     1   --> A_1  D_1  S_1  
     e(  6 -  6) =     15.13531  eV     1   --> A_1  D_1  S_1  
     e(  7 -  7) =     18.00335  eV     1   --> B_2  D_4  S_4  
     e(  8 -  8) =     18.74807  eV     1   --> A_1  D_1  S_1  
     e(  9 -  9) =     19.80194  eV     1   --> B_1  D_3  S_3  
     e( 10 - 10) =     24.38991  eV     1   --> A_2  D_2  S_2  
     e( 11 - 11) =     26.73666  eV     1   --> B_1  D_3  S_3  
     e( 12 - 12) =     26.84363  eV     1   --> A_1  D_1  S_1  
     e( 13 - 13) =     27.29269  eV     1   --> B_2  D_4  S_4  
     e( 14 - 14) =     33.10020  eV     1   --> A_1  D_1  S_1  
     e( 15 - 15) =     34.41149  eV     1   --> B_2  D_4  S_4  
     e( 16 - 16) =     35.77312  eV     1   --> A_1  D_1  S_1  
     e( 17 - 17) =     39.87614  eV     1   --> A_1  D_1  S_1  
     e( 18 - 18) =     40.29042  eV     1   --> B_1  D_3  S_3  
     e( 19 - 19) =     44.43966  eV     1   --> B_1  D_3  S_3  
     e( 20 - 20) =     45.97703  eV     1   --> A_1  D_1  S_1  

 **************************************************************************

 **************************************************************************

                    xk=(   0.00000,   0.46188,   0.00000  )

     Band symmetry, C_2v (mm2)  point group:

     e(  1 -  1) =    -36.65836  eV     1   --> A_1  D_1  S_1  
     e(  2 -  2) =    -11.64838  eV     1   --> A_1  D_1  S_1  
     e(  3 -  3) =    -10.91713  eV     1   --> B_2  D_4  S_4  
     e(  4 -  4) =    -10.74850  eV     1   --> B_1  D_3  S_3  
     e(  5 -  5) =     11.63788  eV     1   --> A_1  D_1  S_1  
     e(  6 -  6) =     14.99949  eV     1   --> A_1  D_1  S_1  
     e(  7 -  7) =     17.94852  eV     1   --> B_2  D_4  S_4  
     e(  8 -  8) =     18.68685  eV     1   --> A_1  D_1  S_1  
     e(  9 -  9) =     19.80429  eV     1   --> B_1  D_3  S_3  
     e( 10 - 10) =     24.36464  eV     1   --> A_2  D_2  S_2  
     e( 11 - 11) =     26.79952  eV     1   --> B_1  D_3  S_3  
     e( 12 - 12) =     27.04908  eV     1   --> A_1  D_1  S_1  
     e( 13 - 13) =     27.22915  eV     1   --> B_2  D_4  S_4  
     e( 14 - 14) =     32.98616  eV     1   --> A_1  D_1  S_1  
     e( 15 - 15) =     34.61690  eV     1   --> B_2  D_4  S_4  
     e( 16 - 16) =     35.67150  eV     1   --> A_1  D_1  S_1  
     e( 17 - 17) =     40.22952  eV     1   --> A_1  D_1  S_1  
     e( 18 - 18) =     40.66375  eV     1   --> B_1  D_3  S_3  
     e( 19 - 19) =     44.16142  eV     1   --> B_1  D_3  S_3  
     e( 20 - 20) =     45.77601  eV     1   --> A_1  D_1  S_1  

 **************************************************************************

 **************************************************************************

                    xk=(   0.00000,   0.47631,   0.00000  )

     Band symmetry, C_2v (mm2)  point group:

     e(  1 -  1) =    -36.65423  eV     1   --> A_1  D_1  S_1  
     e(  2 -  2) =    -11.67477  eV     1   --> A_1  D_1  S_1  
     e(  3 -  3) =    -10.91184  eV     1   --> B_2  D_4  S_4  
     e(  4 -  4) =    -10.75488  eV     1   --> B_1  D_3  S_3  
     e(  5 -  5) =     11.76748  eV     1   --> A_1  D_1  S_1  
     e(  6 -  6) =     14.86960  eV     1   --> A_1  D_1  S_1  
     e(  7 -  7) =     17.90024  eV     1   --> B_2  D_4  S_4  
     e(  8 -  8) =     18.62994  eV     1   --> A_1  D_1  S_1  
     e(  9 -  9) =     19.80568  eV     1   --> B_1  D_3  S_3  
     e( 10 - 10) =     24.34208  eV     1   --> A_2  D_2  S_2  
     e( 11 - 11) =     26.85983  eV     1   --> B_1  D_3  S_3  
     e( 12 - 12) =     27.17141  eV     1   --> B_2  D_4  S_4  
     e( 13 - 13) =     27.25507  eV     1   --> A_1  D_1  S_1  
     e( 14 - 14) =     32.85643  eV     1   --> A_1  D_1  S_1  
     e( 15 - 15) =     34.81152  eV     1   --> B_2  D_4  S_4  
     e( 16 - 16) =     35.58436  eV     1   --> A_1  D_1  S_1  
     e( 17 - 17) =     40.57112  eV     1   --> A_1  D_1  S_1  
     e( 18 - 18) =     41.02306  eV     1   --> B_1  D_3  S_3  
     e( 19 - 19) =     43.91001  eV     1   --> B_1  D_3  S_3  
     e( 20 - 20) =     45.57296  eV     1   --> A_1  D_1  S_1  

 **************************************************************************

 **************************************************************************

                    xk=(   0.00000,   0.49075,   0.00000  )

     Band symmetry, C_2v (mm2)  point group:

     e(  1 -  1) =    -36.65062  eV     1   --> A_1  D_1  S_1  
     e(  2 -  2) =    -11.69792  eV     1   --> A_1  D_1  S_1  
     e(  3 -  3) =    -10.90719  eV     1   --> B_2  D_4  S_4  
     e(  4 -  4) =    -10.76048  eV     1   --> B_1  D_3  S_3  
     e(  5 -  5) =     11.88971  eV     1   --> A_1  D_1  S_1  
     e(  6 -  6) =     14.74618  eV     1   --> A_1  D_1  S_1  
     e(  7 -  7) =     17.85803  eV     1   --> B_2  D_4  S_4  
     e(  8 -  8) =     18.57837  eV     1   --> A_1  D_1  S_1  
     e(  9 -  9) =     19.80585  eV     1   --> B_1  D_3  S_3  
     e( 10 - 10) =     24.32234  eV     1   --> A_2  D_2  S_2  
     e( 11 - 11) =     26.91576  eV     1   --> B_1  D_3  S_3  
     e( 12 - 12) =     27.11971  eV     1   --> B_2  D_4  S_4  
     e( 13 - 13) =     27.45609  eV     1   --> A_1  D_1  S_1  
     e( 14 - 14) =     32.71610  eV     1   --> A_1  D_1  S_1  
     e( 15 - 15) =     34.98853  eV     1   --> B_2  D_4  S_4  
     e( 16 - 16) =     35.51189  eV     1   --> A_1  D_1  S_1  
     e( 17 - 17) =     40.89668  eV     1   --> A_1  D_1  S_1  
     e( 18 - 18) =     41.35874  eV     1   --> B_1  D_3  S_3  
     e( 19 - 19) =     43.68591  eV     1   --> B_1  D_3  S_3  
     e( 20 - 20) =     45.37034  eV     1   --> A_1  D_1  S_1  

 **************************************************************************

 **************************************************************************

                    xk=(   0.00000,   0.50518,   0.00000  )

     Band symmetry, C_2v (mm2)  point group:

     e(  1 -  1) =    -36.64751  eV     1   --> A_1  D_1  S_1  
     e(  2 -  2) =    -11.71771  eV     1   --> A_1  D_1  S_1  
     e(  3 -  3) =    -10.90320  eV     1   --> B_2  D_4  S_4  
     e(  4 -  4) =    -10.76527  eV     1   --> B_1  D_3  S_3  
     e(  5 -  5) =     12.00375  eV     1   --> A_1  D_1  S_1  
     e(  6 -  6) =     14.63232  eV     1   --> A_1  D_1  S_1  
     e(  7 -  7) =     17.82224  eV     1   --> B_2  D_4  S_4  
     e(  8 -  8) =     18.53318  eV     1   --> A_1  D_1  S_1  
     e(  9 -  9) =     19.80570  eV     1   --> B_1  D_3  S_3  
     e( 10 - 10) =     24.30550  eV     1   --> A_2  D_2  S_2  
     e( 11 - 11) =     26.96624  eV     1   --> B_1  D_3  S_3  
     e( 12 - 12) =     27.07500  eV     1   --> B_2  D_4  S_4  
     e( 13 - 13) =     27.64695  eV     1   --> A_1  D_1  S_1  
     e( 14 - 14) =     32.57262  eV     1   --> A_1  D_1  S_1  
     e( 15 - 15) =     35.14609  eV     1   --> B_2  D_4  S_4  
     e( 16 - 16) =     35.45376  eV     1   --> A_1  D_1  S_1  
     e( 17 - 17) =     41.20243  eV     1   --> A_1  D_1  S_1  
     e( 18 - 18) =     41.67263  eV     1   --> B_1  D_3  S_3  
     e( 19 - 19) =     43.48961  eV     1   --> B_1  D_3  S_3  
     e( 20 - 20) =     45.17300  eV     1   --> A_1  D_1  S_1  

 **************************************************************************

 **************************************************************************

                    xk=(   0.00000,   0.51962,   0.00000  )

     Band symmetry, C_2v (mm2)  point group:

     e(  1 -  1) =    -36.64494  eV     1   --> A_1  D_1  S_1  
     e(  2 -  2) =    -11.73404  eV     1   --> A_1  D_1  S_1  
     e(  3 -  3) =    -10.89991  eV     1   --> B_2  D_4  S_4  
     e(  4 -  4) =    -10.76923  eV     1   --> B_1  D_3  S_3  
     e(  5 -  5) =     12.10571  eV     1   --> A_1  D_1  S_1  
     e(  6 -  6) =     14.53079  eV     1   --> A_1  D_1  S_1  
     e(  7 -  7) =     17.79290  eV     1   --> B_2  D_4  S_4  
     e(  8 -  8) =     18.49514  eV     1   --> A_1  D_1  S_1  
     e(  9 -  9) =     19.80524  eV     1   --> B_1  D_3  S_3  
     e( 10 - 10) =     24.29162  eV     1   --> A_2  D_2  S_2  
     e( 11 - 11) =     27.00963  eV     1   --> B_1  D_3  S_3  
     e( 12 - 12) =     27.03778  eV     1   --> B_2  D_4  S_4  
     e( 13 - 13) =     27.82058  eV     1   --> A_1  D_1  S_1  
     e( 14 - 14) =     32.43448  eV     1   --> A_1  D_1  S_1  
     e( 15 - 15) =     35.28071  eV     1   --> B_2  D_4  S_4  
     e( 16 - 16) =     35.40876  eV     1   --> A_1  D_1  S_1  
     e( 17 - 17) =     41.48144  eV     1   --> A_1  D_1  S_1  
     e( 18 - 18) =     41.95536  eV     1   --> B_1  D_3  S_3  
     e( 19 - 19) =     43.32053  eV     1   --> B_1  D_3  S_3  
     e( 20 - 20) =     44.98498  eV     1   --> A_1  D_1  S_1  

 **************************************************************************

 **************************************************************************

                    xk=(   0.00000,   0.53405,   0.00000  )

     Band symmetry, C_2v (mm2)  point group:

     e(  1 -  1) =    -36.64292  eV     1   --> A_1  D_1  S_1  
     e(  2 -  2) =    -11.74682  eV     1   --> A_1  D_1  S_1  
     e(  3 -  3) =    -10.89732  eV     1   --> B_2  D_4  S_4  
     e(  4 -  4) =    -10.77234  eV     1   --> B_1  D_3  S_3  
     e(  5 -  5) =     12.19182  eV     1   --> A_1  D_1  S_1  
     e(  6 -  6) =     14.44520  eV     1   --> A_1  D_1  S_1  
     e(  7 -  7) =     17.77004  eV     1   --> B_2  D_4  S_4  
     e(  8 -  8) =     18.46489  eV     1   --> A_1  D_1  S_1  
     e(  9 -  9) =     19.80468  eV     1   --> B_1  D_3  S_3  
     e( 10 - 10) =     24.28077  eV     1   --> A_2  D_2  S_2  
     e( 11 - 11) =     27.00845  eV     1   --> B_2  D_4  S_4  
     e( 12 - 12) =     27.04473  eV     1   --> B_1  D_3  S_3  
     e( 13 - 13) =     27.96906  eV     1   --> A_1  D_1  S_1  
     e( 14 - 14) =     32.31139  eV     1   --> A_1  D_1  S_1  
     e( 15 - 15) =     35.37551  eV     1   --> A_1  D_1  S_1  
     e( 16 - 16) =     35.38924  eV     1   --> B_2  D_4  S_4  
     e( 17 - 17) =     41.72419  eV     1   --> A_1  D_1  S_1  
     e( 18 - 18) =     42.20045  eV     1   --> B_1  D_3  S_3  
     e( 19 - 19) =     43.17722  eV     1   --> B_1  D_3  S_3  
     e( 20 - 20) =     44.81441  eV     1   --> A_1  D_1  S_1  

 **************************************************************************

 **************************************************************************

                    xk=(   0.00000,   0.54848,   0.00000  )

     Band symmetry, C_2v (mm2)  point group:

     e(  1 -  1) =    -36.64147  eV     1   --> A_1  D_1  S_1  
     e(  2 -  2) =    -11.75600  eV     1   --> A_1  D_1  S_1  
     e(  3 -  3) =    -10.89545  eV     1   --> B_2  D_4  S_4  
     e(  4 -  4) =    -10.77457  eV     1   --> B_1  D_3  S_3  
     e(  5 -  5) =     12.25783  eV     1   --> A_1  D_1  S_1  
     e(  6 -  6) =     14.37965  eV     1   --> A_1  D_1  S_1  
     e(  7 -  7) =     17.75369  eV     1   --> B_2  D_4  S_4  
     e(  8 -  8) =     18.44294  eV     1   --> A_1  D_1  S_1  
     e(  9 -  9) =     19.80416  eV     1   --> B_1  D_3  S_3  
     e( 10 - 10) =     24.27298  eV     1   --> A_2  D_2  S_2  
     e( 11 - 11) =     26.98730  eV     1   --> B_2  D_4  S_4  
     e( 12 - 12) =     27.07055  eV     1   --> B_1  D_3  S_3  
     e( 13 - 13) =     28.08384  eV     1   --> A_1  D_1  S_1  
     e( 14 - 14) =     32.21350  eV     1   --> A_1  D_1  S_1  
     e( 15 - 15) =     35.35277  eV     1   --> A_1  D_1  S_1  
     e( 16 - 16) =     35.46892  eV     1   --> B_2  D_4  S_4  
     e( 17 - 17) =     41.91737  eV     1   --> A_1  D_1  S_1  
     e( 18 - 18) =     42.40137  eV     1   --> B_1  D_3  S_3  
     e( 19 - 19) =     43.05759  eV     1   --> B_1  D_3  S_3  
     e( 20 - 20) =     44.67354  eV     1   --> A_1  D_1  S_1  

 **************************************************************************

 **************************************************************************

                    xk=(   0.00000,   0.56292,   0.00000  )

     Band symmetry, C_2v (mm2)  point group:

     e(  1 -  1) =    -36.64060  eV     1   --> A_1  D_1  S_1  
     e(  2 -  2) =    -11.76153  eV     1   --> A_1  D_1  S_1  
     e(  3 -  3) =    -10.89433  eV     1   --> B_2  D_4  S_4  
     e(  4 -  4) =    -10.77591  eV     1   --> B_1  D_3  S_3  
     e(  5 -  5) =     12.29958  eV     1   --> A_1  D_1  S_1  
     e(  6 -  6) =     14.33824  eV     1   --> A_1  D_1  S_1  
     e(  7 -  7) =     17.74388  eV     1   --> B_2  D_4  S_4  
     e(  8 -  8) =     18.42963  eV     1   --> A_1  D_1  S_1  
     e(  9 -  9) =     19.80381  eV     1   --> B_1  D_3  S_3  
     e( 10 - 10) =     24.26830  eV     1   --> A_2  D_2  S_2  
     e( 11 - 11) =     26.97454  eV     1   --> B_2  D_4  S_4  
     e( 12 - 12) =     27.08634  eV     1   --> B_1  D_3  S_3  
     e( 13 - 13) =     28.15682  eV     1   --> A_1  D_1  S_1  
     e( 14 - 14) =     32.15015  eV     1   --> A_1  D_1  S_1  
     e( 15 - 15) =     35.33956  eV     1   --> A_1  D_1  S_1  
     e( 16 - 16) =     35.51764  eV     1   --> B_2  D_4  S_4  
     e( 17 - 17) =     42.04426  eV     1   --> A_1  D_1  S_1  
     e( 18 - 18) =     42.54836  eV     1   --> B_1  D_3  S_3  
     e( 19 - 19) =     42.96334  eV     1   --> B_1  D_3  S_3  
     e( 20 - 20) =     44.57829  eV     1   --> A_1  D_1  S_1  

 **************************************************************************

 **************************************************************************

                    xk=(   0.00000,   0.57735,   0.00000  )

     point group D_2h (mmm) 
     there are  8 classes
     the character table:

       E     C2    C2'   C2''  i     s_v   s_v'  s_v''
A_g    1.00  1.00  1.00  1.00  1.00  1.00  1.00  1.00
B_1g   1.00  1.00 -1.00 -1.00  1.00  1.00 -1.00 -1.00
B_2g   1.00 -1.00  1.00 -1.00  1.00 -1.00  1.00 -1.00
B_3g   1.00 -1.00 -1.00  1.00  1.00 -1.00 -1.00  1.00
A_u    1.00  1.00  1.00  1.00 -1.00 -1.00 -1.00 -1.00
B_1u   1.00  1.00 -1.00 -1.00 -1.00 -1.00  1.00  1.00
B_2u   1.00 -1.00  1.00 -1.00 -1.00  1.00 -1.00  1.00
B_3u   1.00 -1.00 -1.00  1.00 -1.00  1.00  1.00 -1.00

     the symmetry operations in each class and the name of the first element:

     E        1
                                                                 
     C2       2
                                                                 
     C2'      4
                                                                 
     C2''     3
                                                                 
     i        5
                                                                 
     s_v      6
                                                                 
     s_v'     8
                                                                 
     s_v''    7
                                                                 

     Band symmetry, D_2h (mmm)  point group:

     e(  1 -  1) =    -36.64030  eV     1   --> A_g            
     e(  2 -  2) =    -11.76336  eV     1   --> B_3u           
     e(  3 -  3) =    -10.89396  eV     1   --> B_1u           
     e(  4 -  4) =    -10.77636  eV     1   --> B_2u           
     e(  5 -  5) =     12.31404  eV     1   --> A_g            
     e(  6 -  6) =     14.32459  eV     1   --> B_3u           
     e(  7 -  7) =     17.74070  eV     1   --> B_2g           
     e(  8 -  8) =     18.42521  eV     1   --> A_g            
     e(  9 -  9) =     19.80371  eV     1   --> B_2u           
     e( 10 - 10) =     24.26674  eV     1   --> B_3g           
     e( 11 - 11) =     26.97030  eV     1   --> B_1u           
     e( 12 - 12) =     27.09166  eV     1   --> B_1g           
     e( 13 - 13) =     28.18231  eV     1   --> A_g            
     e( 14 - 14) =     32.12869  eV     1   --> B_3u           
     e( 15 - 15) =     35.33543  eV     1   --> A_g            
     e( 16 - 16) =     35.53438  eV     1   --> B_2g           
     e( 17 - 17) =     42.09123  eV     1   --> A_g            
     e( 18 - 18) =     42.61050  eV     1   --> B_1g           
     e( 19 - 19) =     42.91993  eV     1   --> B_2u           
     e( 20 - 20) =     44.54445  eV     1   --> B_3u           

 **************************************************************************

 **************************************************************************

                    xk=(   0.01667,   0.57735,   0.00000  )

     point group C_2v (mm2) 
     there are  4 classes
     the character table:

       E     C2    s_v   s_v' 
A_1    1.00  1.00  1.00  1.00
A_2    1.00  1.00 -1.00 -1.00
B_1    1.00 -1.00  1.00 -1.00
B_2    1.00 -1.00 -1.00  1.00

     the symmetry operations in each class and the name of the first element:

     E        1
                                                                 
     C2       2
                                                                 
     s_v      4
                                                                 
     s_v'     3
                                                                 

     Band symmetry, C_2v (mm2)  point group:

     e(  1 -  1) =    -36.64018  eV     1   --> A_1  D_1  S_1  
     e(  2 -  2) =    -11.76229  eV     1   --> B_2  D_4  S_4  
     e(  3 -  3) =    -10.89380  eV     1   --> B_1  D_3  S_3  
     e(  4 -  4) =    -10.77876  eV     1   --> A_1  D_1  S_1  
     e(  5 -  5) =     12.32046  eV     1   --> A_1  D_1  S_1  
     e(  6 -  6) =     14.32553  eV     1   --> B_2  D_4  S_4  
     e(  7 -  7) =     17.74517  eV     1   --> A_2  D_2  S_2  
     e(  8 -  8) =     18.39452  eV     1   --> A_1  D_1  S_1  
     e(  9 -  9) =     19.83421  eV     1   --> A_1  D_1  S_1  
     e( 10 - 10) =     24.21022  eV     1   --> B_1  D_3  S_3  
     e( 11 - 11) =     27.03498  eV     1   --> B_1  D_3  S_3  
     e( 12 - 12) =     27.07034  eV     1   --> B_2  D_4  S_4  
     e( 13 - 13) =     28.17202  eV     1   --> A_1  D_1  S_1  
     e( 14 - 14) =     32.15844  eV     1   --> B_2  D_4  S_4  
     e( 15 - 15) =     35.35074  eV     1   --> A_1  D_1  S_1  
     e( 16 - 16) =     35.52848  eV     1   --> A_2  D_2  S_2  
     e( 17 - 17) =     42.04204  eV     1   --> A_1  D_1  S_1  
     e( 18 - 18) =     42.60303  eV     1   --> B_2  D_4  S_4  
     e( 19 - 19) =     42.96458  eV     1   --> A_1  D_1  S_1  
     e( 20 - 20) =     44.55249  eV     1   --> B_2  D_4  S_4  

 **************************************************************************

 **************************************************************************

                    xk=(   0.03333,   0.57735,   0.00000  )

     Band symmetry, C_2v (mm2)  point group:

     e(  1 -  1) =    -36.63980  eV     1   --> A_1  D_1  S_1  
     e(  2 -  2) =    -11.75906  eV     1   --> B_2  D_4  S_4  
     e(  3 -  3) =    -10.89331  eV     1   --> B_1  D_3  S_3  
     e(  4 -  4) =    -10.78592  eV     1   --> A_1  D_1  S_1  
     e(  5 -  5) =     12.33990  eV     1   --> A_1  D_1  S_1  
     e(  6 -  6) =     14.32837  eV     1   --> B_2  D_4  S_4  
     e(  7 -  7) =     17.75860  eV     1   --> A_2  D_2  S_2  
     e(  8 -  8) =     18.30913  eV     1   --> A_1  D_1  S_1  
     e(  9 -  9) =     19.92157  eV     1   --> A_1  D_1  S_1  
     e( 10 - 10) =     24.05484  eV     1   --> B_1  D_3  S_3  
     e( 11 - 11) =     27.00799  eV     1   --> B_2  D_4  S_4  
     e( 12 - 12) =     27.21512  eV     1   --> B_1  D_3  S_3  
     e( 13 - 13) =     28.14130  eV     1   --> A_1  D_1  S_1  
     e( 14 - 14) =     32.24603  eV     1   --> B_2  D_4  S_4  
     e( 15 - 15) =     35.39804  eV     1   --> A_1  D_1  S_1  
     e( 16 - 16) =     35.51083  eV     1   --> A_2  D_2  S_2  
     e( 17 - 17) =     41.91836  eV     1   --> A_1  D_1  S_1  
     e( 18 - 18) =     42.58096  eV     1   --> B_2  D_4  S_4  
     e( 19 - 19) =     43.07487  eV     1   --> A_1  D_1  S_1  
     e( 20 - 20) =     44.57623  eV     1   --> B_2  D_4  S_4  

 **************************************************************************

 **************************************************************************

                    xk=(   0.05000,   0.57735,   0.00000  )

     Band symmetry, C_2v (mm2)  point group:

     e(  1 -  1) =    -36.63917  eV     1   --> A_1  D_1  S_1  
     e(  2 -  2) =    -11.75371  eV     1   --> B_2  D_4  S_4  
     e(  3 -  3) =    -10.89252  eV     1   --> B_1  D_3  S_3  
     e(  4 -  4) =    -10.79774  eV     1   --> A_1  D_1  S_1  
     e(  5 -  5) =     12.37197  eV     1   --> A_1  D_1  S_1  
     e(  6 -  6) =     14.33260  eV     1   --> B_2  D_4  S_4  
     e(  7 -  7) =     17.78087  eV     1   --> A_2  D_2  S_2  
     e(  8 -  8) =     18.18318  eV     1   --> A_1  D_1  S_1  
     e(  9 -  9) =     20.05109  eV     1   --> A_1  D_1  S_1  
     e( 10 - 10) =     23.83058  eV     1   --> B_1  D_3  S_3  
     e( 11 - 11) =     26.90896  eV     1   --> B_2  D_4  S_4  
     e( 12 - 12) =     27.48043  eV     1   --> B_1  D_3  S_3  
     e( 13 - 13) =     28.09003  eV     1   --> A_1  D_1  S_1  
     e( 14 - 14) =     32.38643  eV     1   --> B_2  D_4  S_4  
     e( 15 - 15) =     35.47640  eV     1   --> A_1  D_1  S_1  
     e( 16 - 16) =     35.48124  eV     1   --> A_2  D_2  S_2  
     e( 17 - 17) =     41.75414  eV     1   --> A_1  D_1  S_1  
     e( 18 - 18) =     42.54504  eV     1   --> B_2  D_4  S_4  
     e( 19 - 19) =     43.21283  eV     1   --> A_1  D_1  S_1  
     e( 20 - 20) =     44.61433  eV     1   --> B_2  D_4  S_4  

 **************************************************************************

 **************************************************************************

                    xk=(   0.06667,   0.57735,   0.00000  )

     Band symmetry, C_2v (mm2)  point group:

     e(  1 -  1) =    -36.63831  eV     1   --> A_1  D_1  S_1  
     e(  2 -  2) =    -11.74624  eV     1   --> B_2  D_4  S_4  
     e(  3 -  3) =    -10.89142  eV     1   --> B_1  D_3  S_3  
     e(  4 -  4) =    -10.81406  eV     1   --> A_1  D_1  S_1  
     e(  5 -  5) =     12.41678  eV     1   --> A_1  D_1  S_1  
     e(  6 -  6) =     14.33899  eV     1   --> B_2  D_4  S_4  
     e(  7 -  7) =     17.81217  eV     1   --> A_2  D_2  S_2  
     e(  8 -  8) =     18.02971  eV     1   --> A_1  D_1  S_1  
     e(  9 -  9) =     20.21008  eV     1   --> A_1  D_1  S_1  
     e( 10 - 10) =     23.56495  eV     1   --> B_1  D_3  S_3  
     e( 11 - 11) =     26.77936  eV     1   --> B_2  D_4  S_4  
     e( 12 - 12) =     27.80315  eV     1   --> B_1  D_3  S_3  
     e( 13 - 13) =     28.01942  eV     1   --> A_1  D_1  S_1  
     e( 14 - 14) =     32.57439  eV     1   --> B_2  D_4  S_4  
     e( 15 - 15) =     35.44056  eV     1   --> A_2  D_2  S_2  
     e( 16 - 16) =     35.58531  eV     1   --> A_1  D_1  S_1  
     e( 17 - 17) =     41.57423  eV     1   --> A_1  D_1  S_1  
     e( 18 - 18) =     42.49444  eV     1   --> B_2  D_4  S_4  
     e( 19 - 19) =     43.35545  eV     1   --> A_1  D_1  S_1  
     e( 20 - 20) =     44.66539  eV     1   --> B_2  D_4  S_4  

 **************************************************************************

 **************************************************************************

                    xk=(   0.08333,   0.57735,   0.00000  )

     Band symmetry, C_2v (mm2)  point group:

     e(  1 -  1) =    -36.63722  eV     1   --> A_1  D_1  S_1  
     e(  2 -  2) =    -11.73667  eV     1   --> B_2  D_4  S_4  
     e(  3 -  3) =    -10.89005  eV     1   --> B_1  D_3  S_3  
     e(  4 -  4) =    -10.83466  eV     1   --> A_1  D_1  S_1  
     e(  5 -  5) =     12.47432  eV     1   --> A_1  D_1  S_1  
     e(  6 -  6) =     14.34793  eV     1   --> B_2  D_4  S_4  
     e(  7 -  7) =     17.85237  eV     1   --> A_2  D_2  S_2  
     e(  8 -  8) =     17.85769  eV     1   --> A_1  D_1  S_1  
     e(  9 -  9) =     20.39133  eV     1   --> A_1  D_1  S_1  
     e( 10 - 10) =     23.27689  eV     1   --> B_1  D_3  S_3  
     e( 11 - 11) =     26.62609  eV     1   --> B_2  D_4  S_4  
     e( 12 - 12) =     27.93011  eV     1   --> A_1  D_1  S_1  
     e( 13 - 13) =     28.16387  eV     1   --> B_1  D_3  S_3  
     e( 14 - 14) =     32.80271  eV     1   --> B_2  D_4  S_4  
     e( 15 - 15) =     35.38883  eV     1   --> A_2  D_2  S_2  
     e( 16 - 16) =     35.72441  eV     1   --> A_1  D_1  S_1  
     e( 17 - 17) =     41.38703  eV     1   --> A_1  D_1  S_1  
     e( 18 - 18) =     42.44071  eV     1   --> B_2  D_4  S_4  
     e( 19 - 19) =     43.49018  eV     1   --> A_1  D_1  S_1  
     e( 20 - 20) =     44.72894  eV     1   --> B_2  D_4  S_4  

 **************************************************************************

 **************************************************************************

                    xk=(   0.10000,   0.57735,   0.00000  )

     Band symmetry, C_2v (mm2)  point group:

     e(  1 -  1) =    -36.63594  eV     1   --> A_1  D_1  S_1  
     e(  2 -  2) =    -11.72506  eV     1   --> B_2  D_4  S_4  
     e(  3 -  3) =    -10.88843  eV     1   --> B_1  D_3  S_3  
     e(  4 -  4) =    -10.85926  eV     1   --> A_1  D_1  S_1  
     e(  5 -  5) =     12.54342  eV     1   --> A_1  D_1  S_1  
     e(  6 -  6) =     14.35836  eV     1   --> B_2  D_4  S_4  
     e(  7 -  7) =     17.67236  eV     1   --> A_1  D_1  S_1  
     e(  8 -  8) =     17.90143  eV     1   --> A_2  D_2  S_2  
     e(  9 -  9) =     20.58817  eV     1   --> A_1  D_1  S_1  
     e( 10 - 10) =     22.97828  eV     1   --> B_1  D_3  S_3  
     e( 11 - 11) =     26.45532  eV     1   --> B_2  D_4  S_4  
     e( 12 - 12) =     27.82234  eV     1   --> A_1  D_1  S_1  
     e( 13 - 13) =     28.55010  eV     1   --> B_1  D_3  S_3  
     e( 14 - 14) =     33.06462  eV     1   --> B_2  D_4  S_4  
     e( 15 - 15) =     35.32626  eV     1   --> A_2  D_2  S_2  
     e( 16 - 16) =     35.89242  eV     1   --> A_1  D_1  S_1  
     e( 17 - 17) =     41.19572  eV     1   --> A_1  D_1  S_1  
     e( 18 - 18) =     42.37323  eV     1   --> B_2  D_4  S_4  
     e( 19 - 19) =     43.60759  eV     1   --> A_1  D_1  S_1  
     e( 20 - 20) =     44.80089  eV     1   --> B_2  D_4  S_4  

 **************************************************************************

 **************************************************************************

                    xk=(   0.11667,   0.57735,   0.00000  )

     Band symmetry, C_2v (mm2)  point group:

     e(  1 -  1) =    -36.63448  eV     1   --> A_1  D_1  S_1  
     e(  2 -  2) =    -11.71144  eV     1   --> B_2  D_4  S_4  
     e(  3 -  3) =    -10.88753  eV     1   --> A_1  D_1  S_1  
     e(  4 -  4) =    -10.88660  eV     1   --> B_1  D_3  S_3  
     e(  5 -  5) =     12.62406  eV     1   --> A_1  D_1  S_1  
     e(  6 -  6) =     14.37076  eV     1   --> B_2  D_4  S_4  
     e(  7 -  7) =     17.47716  eV     1   --> A_1  D_1  S_1  
     e(  8 -  8) =     17.95934  eV     1   --> A_2  D_2  S_2  
     e(  9 -  9) =     20.79887  eV     1   --> A_1  D_1  S_1  
     e( 10 - 10) =     22.67649  eV     1   --> B_1  D_3  S_3  
[...]
     e(  9 -  9) =     20.93052  eV     1   --> B_1  D_3  S_3  
     e( 10 - 10) =     23.19598  eV     1   --> A_1  D_1  S_1  
     e( 11 - 11) =     25.20846  eV     1   --> A_1  D_1  S_1  
     e( 12 - 12) =     25.22734  eV     1   --> A_2  D_2  S_2  
     e( 13 - 13) =     25.67533  eV     1   --> B_2  D_4  S_4  
     e( 14 - 14) =     31.93338  eV     1   --> B_1  D_3  S_3  
     e( 15 - 15) =     36.23322  eV     1   --> B_2  D_4  S_4  
     e( 16 - 16) =     36.76236  eV     1   --> A_2  D_2  S_2  
     e( 17 - 17) =     38.93655  eV     1   --> A_2  D_2  S_2  
     e( 18 - 18) =     40.09851  eV     1   --> B_2  D_4  S_4  
     e( 19 - 19) =     42.74673  eV     1   --> A_1  D_1  S_1  
     e( 20 - 20) =     45.88366  eV     1   --> A_1  D_1  S_1  

 **************************************************************************

 **************************************************************************

                    xk=(   0.08333,   0.14434,   0.46784  )

     Band symmetry, C_2v (mm2)  point group:

     e(  1 -  1) =    -36.74155  eV     1   --> A_1  D_1  S_1  
     e(  2 -  2) =    -11.71631  eV     1   --> B_2  D_4  S_4  
     e(  3 -  3) =    -10.66904  eV     1   --> A_1  D_1  S_1  
     e(  4 -  4) =    -10.48103  eV     1   --> B_1  D_3  S_3  
     e(  5 -  5) =     11.88601  eV     1   --> B_2  D_4  S_4  
     e(  6 -  6) =     15.21890  eV     1   --> A_1  D_1  S_1  
     e(  7 -  7) =     19.23544  eV     1   --> A_2  D_2  S_2  
     e(  8 -  8) =     19.60487  eV     1   --> B_2  D_4  S_4  
     e(  9 -  9) =     21.11362  eV     1   --> B_1  D_3  S_3  
     e( 10 - 10) =     23.04615  eV     1   --> A_1  D_1  S_1  
     e( 11 - 11) =     24.97062  eV     1   --> A_2  D_2  S_2  
     e( 12 - 12) =     25.14831  eV     1   --> A_1  D_1  S_1  
     e( 13 - 13) =     25.34957  eV     1   --> B_2  D_4  S_4  
     e( 14 - 14) =     31.64066  eV     1   --> B_1  D_3  S_3  
     e( 15 - 15) =     36.36270  eV     1   --> B_2  D_4  S_4  
     e( 16 - 16) =     36.74841  eV     1   --> A_2  D_2  S_2  
     e( 17 - 17) =     38.80196  eV     1   --> A_2  D_2  S_2  
     e( 18 - 18) =     39.83430  eV     1   --> B_2  D_4  S_4  
     e( 19 - 19) =     43.04538  eV     1   --> A_1  D_1  S_1  
     e( 20 - 20) =     46.27499  eV     1   --> A_1  D_1  S_1  

 **************************************************************************

 **************************************************************************

                    xk=(   0.07500,   0.12990,   0.46784  )

     Band symmetry, C_2v (mm2)  point group:

     e(  1 -  1) =    -36.74781  eV     1   --> A_1  D_1  S_1  
     e(  2 -  2) =    -11.72672  eV     1   --> B_2  D_4  S_4  
     e(  3 -  3) =    -10.62599  eV     1   --> A_1  D_1  S_1  
     e(  4 -  4) =    -10.46970  eV     1   --> B_1  D_3  S_3  
     e(  5 -  5) =     11.90079  eV     1   --> B_2  D_4  S_4  
     e(  6 -  6) =     15.07716  eV     1   --> A_1  D_1  S_1  
     e(  7 -  7) =     19.51975  eV     1   --> A_2  D_2  S_2  
     e(  8 -  8) =     19.81372  eV     1   --> B_2  D_4  S_4  
     e(  9 -  9) =     21.29532  eV     1   --> B_1  D_3  S_3  
     e( 10 - 10) =     22.90991  eV     1   --> A_1  D_1  S_1  
     e( 11 - 11) =     24.71046  eV     1   --> A_2  D_2  S_2  
     e( 12 - 12) =     25.02461  eV     1   --> B_2  D_4  S_4  
     e( 13 - 13) =     25.09346  eV     1   --> A_1  D_1  S_1  
     e( 14 - 14) =     31.35217  eV     1   --> B_1  D_3  S_3  
     e( 15 - 15) =     36.48567  eV     1   --> B_2  D_4  S_4  
     e( 16 - 16) =     36.72197  eV     1   --> A_2  D_2  S_2  
     e( 17 - 17) =     38.69730  eV     1   --> A_2  D_2  S_2  
     e( 18 - 18) =     39.59257  eV     1   --> B_2  D_4  S_4  
     e( 19 - 19) =     43.31489  eV     1   --> A_1  D_1  S_1  
     e( 20 - 20) =     46.66768  eV     1   --> B_1  D_3  S_3  

 **************************************************************************

 **************************************************************************

                    xk=(   0.06667,   0.11547,   0.46784  )

     Band symmetry, C_2v (mm2)  point group:

     e(  1 -  1) =    -36.75355  eV     1   --> A_1  D_1  S_1  
     e(  2 -  2) =    -11.73625  eV     1   --> B_2  D_4  S_4  
     e(  3 -  3) =    -10.58598  eV     1   --> A_1  D_1  S_1  
     e(  4 -  4) =    -10.45959  eV     1   --> B_1  D_3  S_3  
     e(  5 -  5) =     11.91421  eV     1   --> B_2  D_4  S_4  
     e(  6 -  6) =     14.94758  eV     1   --> A_1  D_1  S_1  
     e(  7 -  7) =     19.80542  eV     1   --> A_2  D_2  S_2  
     e(  8 -  8) =     20.03289  eV     1   --> B_2  D_4  S_4  
     e(  9 -  9) =     21.47299  eV     1   --> B_1  D_3  S_3  
     e( 10 - 10) =     22.78751  eV     1   --> A_1  D_1  S_1  
     e( 11 - 11) =     24.44627  eV     1   --> A_2  D_2  S_2  
     e( 12 - 12) =     24.70101  eV     1   --> B_2  D_4  S_4  
     e( 13 - 13) =     25.04403  eV     1   --> A_1  D_1  S_1  
     e( 14 - 14) =     31.07288  eV     1   --> B_1  D_3  S_3  
     e( 15 - 15) =     36.60110  eV     1   --> B_2  D_4  S_4  
     e( 16 - 16) =     36.67998  eV     1   --> A_2  D_2  S_2  
     e( 17 - 17) =     38.61952  eV     1   --> A_2  D_2  S_2  
     e( 18 - 18) =     39.37186  eV     1   --> B_2  D_4  S_4  
     e( 19 - 19) =     43.55567  eV     1   --> A_1  D_1  S_1  
     e( 20 - 20) =     47.03537  eV     1   --> B_1  D_3  S_3  

 **************************************************************************

 **************************************************************************

                    xk=(   0.05833,   0.10104,   0.46784  )

     Band symmetry, C_2v (mm2)  point group:

     e(  1 -  1) =    -36.75872  eV     1   --> A_1  D_1  S_1  
     e(  2 -  2) =    -11.74483  eV     1   --> B_2  D_4  S_4  
     e(  3 -  3) =    -10.54946  eV     1   --> A_1  D_1  S_1  
     e(  4 -  4) =    -10.45070  eV     1   --> B_1  D_3  S_3  
     e(  5 -  5) =     11.92663  eV     1   --> B_2  D_4  S_4  
     e(  6 -  6) =     14.83110  eV     1   --> A_1  D_1  S_1  
     e(  7 -  7) =     20.09280  eV     1   --> A_2  D_2  S_2  
     e(  8 -  8) =     20.26253  eV     1   --> B_2  D_4  S_4  
     e(  9 -  9) =     21.64364  eV     1   --> B_1  D_3  S_3  
     e( 10 - 10) =     22.67917  eV     1   --> A_1  D_1  S_1  
     e( 11 - 11) =     24.17922  eV     1   --> A_2  D_2  S_2  
     e( 12 - 12) =     24.37967  eV     1   --> B_2  D_4  S_4  
     e( 13 - 13) =     25.00018  eV     1   --> A_1  D_1  S_1  
     e( 14 - 14) =     30.80888  eV     1   --> B_1  D_3  S_3  
     e( 15 - 15) =     36.63083  eV     1   --> A_2  D_2  S_2  
     e( 16 - 16) =     36.70853  eV     1   --> B_2  D_4  S_4  
     e( 17 - 17) =     38.56499  eV     1   --> A_2  D_2  S_2  
     e( 18 - 18) =     39.17443  eV     1   --> B_2  D_4  S_4  
     e( 19 - 19) =     43.76969  eV     1   --> A_1  D_1  S_1  
     e( 20 - 20) =     47.41968  eV     1   --> B_1  D_3  S_3  

 **************************************************************************

 **************************************************************************

                    xk=(   0.05000,   0.08660,   0.46784  )

     Band symmetry, C_2v (mm2)  point group:

     e(  1 -  1) =    -36.76329  eV     1   --> A_1  D_1  S_1  
     e(  2 -  2) =    -11.75241  eV     1   --> B_2  D_4  S_4  
     e(  3 -  3) =    -10.51688  eV     1   --> A_1  D_1  S_1  
     e(  4 -  4) =    -10.44303  eV     1   --> B_1  D_3  S_3  
     e(  5 -  5) =     11.93735  eV     1   --> B_2  D_4  S_4  
     e(  6 -  6) =     14.72845  eV     1   --> A_1  D_1  S_1  
     e(  7 -  7) =     20.38013  eV     1   --> A_2  D_2  S_2  
     e(  8 -  8) =     20.50062  eV     1   --> B_2  D_4  S_4  
     e(  9 -  9) =     21.80367  eV     1   --> B_1  D_3  S_3  
     e( 10 - 10) =     22.58505  eV     1   --> A_1  D_1  S_1  
     e( 11 - 11) =     23.90906  eV     1   --> A_2  D_2  S_2  
     e( 12 - 12) =     24.06115  eV     1   --> B_2  D_4  S_4  
     e( 13 - 13) =     24.96191  eV     1   --> A_1  D_1  S_1  
     e( 14 - 14) =     30.56388  eV     1   --> B_1  D_3  S_3  
     e( 15 - 15) =     36.57596  eV     1   --> A_2  D_2  S_2  
     e( 16 - 16) =     36.80617  eV     1   --> B_2  D_4  S_4  
     e( 17 - 17) =     38.52895  eV     1   --> A_2  D_2  S_2  
     e( 18 - 18) =     38.99925  eV     1   --> B_2  D_4  S_4  
     e( 19 - 19) =     43.95400  eV     1   --> A_1  D_1  S_1  
     e( 20 - 20) =     47.81720  eV     1   --> B_1  D_3  S_3  

 **************************************************************************

 **************************************************************************

                    xk=(   0.04167,   0.07217,   0.46784  )

     Band symmetry, C_2v (mm2)  point group:

     e(  1 -  1) =    -36.76722  eV     1   --> A_1  D_1  S_1  
     e(  2 -  2) =    -11.75891  eV     1   --> B_2  D_4  S_4  
     e(  3 -  3) =    -10.48861  eV     1   --> A_1  D_1  S_1  
     e(  4 -  4) =    -10.43655  eV     1   --> B_1  D_3  S_3  
     e(  5 -  5) =     11.94657  eV     1   --> B_2  D_4  S_4  
     e(  6 -  6) =     14.64037  eV     1   --> A_1  D_1  S_1  
     e(  7 -  7) =     20.66693  eV     1   --> A_2  D_2  S_2  
     e(  8 -  8) =     20.74678  eV     1   --> B_2  D_4  S_4  
     e(  9 -  9) =     21.94932  eV     1   --> B_1  D_3  S_3  
     e( 10 - 10) =     22.50526  eV     1   --> A_1  D_1  S_1  
     e( 11 - 11) =     23.63699  eV     1   --> A_2  D_2  S_2  
     e( 12 - 12) =     23.74676  eV     1   --> B_2  D_4  S_4  
     e( 13 - 13) =     24.92937  eV     1   --> A_1  D_1  S_1  
     e( 14 - 14) =     30.34402  eV     1   --> B_1  D_3  S_3  
     e( 15 - 15) =     36.52170  eV     1   --> A_2  D_2  S_2  
     e( 16 - 16) =     36.89328  eV     1   --> B_2  D_4  S_4  
     e( 17 - 17) =     38.50666  eV     1   --> A_2  D_2  S_2  
     e( 18 - 18) =     38.84762  eV     1   --> B_2  D_4  S_4  
     e( 19 - 19) =     44.11022  eV     1   --> A_1  D_1  S_1  
     e( 20 - 20) =     48.22381  eV     1   --> B_1  D_3  S_3  

 **************************************************************************

 **************************************************************************

                    xk=(   0.03333,   0.05774,   0.46784  )

     Band symmetry, C_2v (mm2)  point group:

     e(  1 -  1) =    -36.77047  eV     1   --> A_1  D_1  S_1  
     e(  2 -  2) =    -11.76431  eV     1   --> B_2  D_4  S_4  
     e(  3 -  3) =    -10.46499  eV     1   --> A_1  D_1  S_1  
     e(  4 -  4) =    -10.43126  eV     1   --> B_1  D_3  S_3  
     e(  5 -  5) =     11.95420  eV     1   --> B_2  D_4  S_4  
     e(  6 -  6) =     14.56744  eV     1   --> A_1  D_1  S_1  
     e(  7 -  7) =     20.95166  eV     1   --> A_2  D_2  S_2  
     e(  8 -  8) =     20.99936  eV     1   --> B_2  D_4  S_4  
     e(  9 -  9) =     22.07647  eV     1   --> B_1  D_3  S_3  
     e( 10 - 10) =     22.43989  eV     1   --> A_1  D_1  S_1  
     e( 11 - 11) =     23.36448  eV     1   --> A_2  D_2  S_2  
     e( 12 - 12) =     23.43825  eV     1   --> B_2  D_4  S_4  
     e( 13 - 13) =     24.90263  eV     1   --> A_1  D_1  S_1  
     e( 14 - 14) =     30.15460  eV     1   --> B_1  D_3  S_3  
     e( 15 - 15) =     36.47210  eV     1   --> A_2  D_2  S_2  
     e( 16 - 16) =     36.96851  eV     1   --> B_2  D_4  S_4  
     e( 17 - 17) =     38.49393  eV     1   --> A_2  D_2  S_2  
     e( 18 - 18) =     38.72039  eV     1   --> B_2  D_4  S_4  
     e( 19 - 19) =     44.23830  eV     1   --> A_1  D_1  S_1  
     e( 20 - 20) =     48.63368  eV     1   --> B_1  D_3  S_3  

 **************************************************************************

 **************************************************************************

                    xk=(   0.02500,   0.04330,   0.46784  )

     Band symmetry, C_2v (mm2)  point group:

     e(  1 -  1) =    -36.77304  eV     1   --> A_1  D_1  S_1  
     e(  2 -  2) =    -11.76854  eV     1   --> B_2  D_4  S_4  
     e(  3 -  3) =    -10.44631  eV     1   --> A_1  D_1  S_1  
     e(  4 -  4) =    -10.42715  eV     1   --> B_1  D_3  S_3  
     e(  5 -  5) =     11.96008  eV     1   --> B_2  D_4  S_4  
     e(  6 -  6) =     14.51018  eV     1   --> A_1  D_1  S_1  
     e(  7 -  7) =     21.23096  eV     1   --> A_2  D_2  S_2  
     e(  8 -  8) =     21.25467  eV     1   --> B_2  D_4  S_4  
     e(  9 -  9) =     22.18097  eV     1   --> B_1  D_3  S_3  
     e( 10 - 10) =     22.38899  eV     1   --> A_1  D_1  S_1  
     e( 11 - 11) =     23.09432  eV     1   --> A_2  D_2  S_2  
     e( 12 - 12) =     23.13769  eV     1   --> B_2  D_4  S_4  
     e( 13 - 13) =     24.88177  eV     1   --> A_1  D_1  S_1  
     e( 14 - 14) =     30.00064  eV     1   --> B_1  D_3  S_3  
     e( 15 - 15) =     36.42992  eV     1   --> A_2  D_2  S_2  
     e( 16 - 16) =     37.03022  eV     1   --> B_2  D_4  S_4  
     e( 17 - 17) =     38.48628  eV     1   --> A_2  D_2  S_2  
     e( 18 - 18) =     38.61858  eV     1   --> B_2  D_4  S_4  
     e( 19 - 19) =     44.33795  eV     1   --> A_1  D_1  S_1  
     e( 20 - 20) =     49.03687  eV     1   --> B_1  D_3  S_3  

 **************************************************************************

 **************************************************************************

                    xk=(   0.01667,   0.02887,   0.46784  )

     Band symmetry, C_2v (mm2)  point group:

     e(  1 -  1) =    -36.77489  eV     1   --> A_1  D_1  S_1  
     e(  2 -  2) =    -11.77160  eV     1   --> B_2  D_4  S_4  
     e(  3 -  3) =    -10.43280  eV     1   --> A_1  D_1  S_1  
     e(  4 -  4) =    -10.42423  eV     1   --> B_1  D_3  S_3  
     e(  5 -  5) =     11.96427  eV     1   --> B_2  D_4  S_4  
     e(  6 -  6) =     14.46899  eV     1   --> A_1  D_1  S_1  
     e(  7 -  7) =     21.49843  eV     1   --> A_2  D_2  S_2  
     e(  8 -  8) =     21.50670  eV     1   --> B_2  D_4  S_4  
     e(  9 -  9) =     22.25895  eV     1   --> B_1  D_3  S_3  
     e( 10 - 10) =     22.35261  eV     1   --> A_1  D_1  S_1  
     e( 11 - 11) =     22.83281  eV     1   --> A_2  D_2  S_2  
     e( 12 - 12) =     22.85330  eV     1   --> B_2  D_4  S_4  
     e( 13 - 13) =     24.86683  eV     1   --> A_1  D_1  S_1  
     e( 14 - 14) =     29.88685  eV     1   --> B_1  D_3  S_3  
     e( 15 - 15) =     36.39796  eV     1   --> A_2  D_2  S_2  
     e( 16 - 16) =     37.07647  eV     1   --> B_2  D_4  S_4  
     e( 17 - 17) =     38.48262  eV     1   --> A_2  D_2  S_2  
     e( 18 - 18) =     38.54353  eV     1   --> B_2  D_4  S_4  
     e( 19 - 19) =     44.40920  eV     1   --> A_1  D_1  S_1  
     e( 20 - 20) =     49.41317  eV     1   --> B_1  D_3  S_3  

 **************************************************************************

 **************************************************************************

                    xk=(   0.00833,   0.01443,   0.46784  )

     Band symmetry, C_2v (mm2)  point group:

     e(  1 -  1) =    -36.77600  eV     1   --> A_1  D_1  S_1  
     e(  2 -  2) =    -11.77344  eV     1   --> B_2  D_4  S_4  
     e(  3 -  3) =    -10.42462  eV     1   --> A_1  D_1  S_1  
     e(  4 -  4) =    -10.42247  eV     1   --> B_1  D_3  S_3  
     e(  5 -  5) =     11.96675  eV     1   --> B_2  D_4  S_4  
     e(  6 -  6) =     14.44415  eV     1   --> A_1  D_1  S_1  
     e(  7 -  7) =     21.73068  eV     1   --> A_2  D_2  S_2  
     e(  8 -  8) =     21.73188  eV     1   --> B_2  D_4  S_4  
     e(  9 -  9) =     22.30717  eV     1   --> B_1  D_3  S_3  
     e( 10 - 10) =     22.33077  eV     1   --> A_1  D_1  S_1  
     e( 11 - 11) =     22.60277  eV     1   --> A_2  D_2  S_2  
     e( 12 - 12) =     22.60921  eV     1   --> B_2  D_4  S_4  
     e( 13 - 13) =     24.85785  eV     1   --> A_1  D_1  S_1  
     e( 14 - 14) =     29.81691  eV     1   --> B_1  D_3  S_3  
     e( 15 - 15) =     36.37791  eV     1   --> A_2  D_2  S_2  
     e( 16 - 16) =     37.10531  eV     1   --> B_2  D_4  S_4  
     e( 17 - 17) =     38.48149  eV     1   --> A_2  D_2  S_2  
     e( 18 - 18) =     38.49665  eV     1   --> B_2  D_4  S_4  
     e( 19 - 19) =     44.45193  eV     1   --> A_1  D_1  S_1  
     e( 20 - 20) =     49.71473  eV     1   --> B_1  D_3  S_3  

 **************************************************************************

 **************************************************************************

                    xk=(   0.00000,   0.00000,   0.46784  )

     point group D_6h(6/mmm)
     there are 12 classes
     the character table:

       E     2C6   2C3   C2    3C2'  3C2'' i     2S3   2S6   s_h   3s_d  3s_v 
A_1g   1.00  1.00  1.00  1.00  1.00  1.00  1.00  1.00  1.00  1.00  1.00  1.00
A_2g   1.00  1.00  1.00  1.00 -1.00 -1.00  1.00  1.00  1.00  1.00 -1.00 -1.00
B_1g   1.00 -1.00  1.00 -1.00  1.00 -1.00  1.00 -1.00  1.00 -1.00  1.00 -1.00
B_2g   1.00 -1.00  1.00 -1.00 -1.00  1.00  1.00 -1.00  1.00 -1.00 -1.00  1.00
E_1g   2.00  1.00 -1.00 -2.00  0.00  0.00  2.00  1.00 -1.00 -2.00  0.00  0.00
E_2g   2.00 -1.00 -1.00  2.00  0.00  0.00  2.00 -1.00 -1.00  2.00  0.00  0.00
A_1u   1.00  1.00  1.00  1.00  1.00  1.00 -1.00 -1.00 -1.00 -1.00 -1.00 -1.00
A_2u   1.00  1.00  1.00  1.00 -1.00 -1.00 -1.00 -1.00 -1.00 -1.00  1.00  1.00
B_1u   1.00 -1.00  1.00 -1.00  1.00 -1.00 -1.00  1.00 -1.00  1.00 -1.00  1.00
B_2u   1.00 -1.00  1.00 -1.00 -1.00  1.00 -1.00  1.00 -1.00  1.00  1.00 -1.00
E_1u   2.00  1.00 -1.00 -2.00  0.00  0.00 -2.00 -1.00  1.00  2.00  0.00  0.00
E_2u   2.00 -1.00 -1.00  2.00  0.00  0.00 -2.00  1.00  1.00 -2.00  0.00  0.00

     the symmetry operations in each class and the name of the first element:

     E        1
                                                                 
     2C6      5    6
                                                                 
     2C3      7    8
                                                                 
     C2       2
                                                                 
     3C2'     4   12   11
                                                                 
     3C2''    3    9   10
                                                                 
     i       13
                                                                 
     2S3     17   18
                                                                 
     2S6     19   20
                                                                 
     s_h     14
                                                                 
     3s_d    16   24   23
                                                                 
     3s_v    15   21   22
                                                                 

     Band symmetry, D_6h(6/mmm) point group:

     e(  1 -  1) =    -36.77638  eV     1   --> A_1g           
     e(  2 -  2) =    -11.77405  eV     1   --> A_2u           
     e(  3 -  4) =    -10.42189  eV     2   --> E_1u           
     e(  5 -  5) =     11.96762  eV     1   --> A_2u           
     e(  6 -  6) =     14.43586  eV     1   --> A_1g           
     e(  7 -  8) =     21.84302  eV     2   --> E_1g           
     e(  9 - 10) =     22.32349  eV     2   --> E_2g           
     e( 11 - 12) =     22.49181  eV     2   --> E_2u           
     e( 13 - 13) =     24.85486  eV     1   --> A_1g           
     e( 14 - 14) =     29.79333  eV     1   --> B_2u           
     e( 15 - 15) =     36.37127  eV     1   --> B_1g           
     e( 16 - 16) =     37.11514  eV     1   --> A_2u           
     e( 17 - 18) =     38.48123  eV     2   --> E_1g           
     e( 19 - 19) =     44.46623  eV     1   --> A_1g           
     e( 20 - 20) =     49.84102  eV     1   -->   ?

 **************************************************************************
 
     BANDS        :      5.89s CPU      6.38s WALL

 
   This run was terminated on:   7:28:16  28Apr2022            

=------------------------------------------------------------------------------=
   JOB DONE.
=------------------------------------------------------------------------------=
