
     Program BANDS v.7.0 starts on 28Apr2022 at  4:41:21 

     This program is part of the open-source Quantum ESPRESSO suite
     for quantum simulation of materials; please cite
         "P. Giannozzi et al., J. Phys.:Condens. Matter 21 395502 (2009);
         "P. Giannozzi et al., J. Phys.:Condens. Matter 29 465901 (2017);
         "P. Giannozzi et al., J. Chem. Phys. 152 154105 (2020);
          URL http://www.quantum-espresso.org", 
     in publications or presentations arising from this work. More details at
     http://www.quantum-espresso.org/quote

     Parallel version (MPI), running on     8 processors

     MPI processes distributed on     1 nodes
     R & G space division:  proc/nbgrp/npool/nimage =       8
     1999 MiB available memory on the printing compute node when the environment starts
 

     Reading xml data from directory:

     ./tmp/mob2.save/

     IMPORTANT: XC functional enforced from input :
     Exchange-correlation= PBE
                           (   1   4   3   4   0   0   0)
     Any further DFT definition will be discarded
     Please, verify this is what you really want

 
     Parallelization info
     --------------------
     sticks:   dense  smooth     PW     G-vecs:    dense   smooth      PW
     Min          35      35     11                  513      513      97
     Max          36      36     12                  516      516     100
     Sum         283     283     91                 4119     4119     787
 
     Using Slab Decomposition
 
     Reading collected, re-writing distributed wavefunctions
     high-symmetry point:  0.0000 0.0000 0.0000   x coordinate   0.0000
     high-symmetry point:  0.0000 0.5774 0.0000   x coordinate   0.5774
     high-symmetry point:  0.3333 0.5774 0.0000   x coordinate   0.9107
     high-symmetry point:  0.0000 0.0000 0.0000   x coordinate   1.5774
     high-symmetry point:  0.0000 0.0000 0.4668   x coordinate   2.0441
     high-symmetry point:  0.0000 0.5774 0.4668   x coordinate   2.6215
     high-symmetry point:  0.3333 0.5774 0.4668   x coordinate   2.9548
     high-symmetry point:  0.0000 0.0000 0.4668   x coordinate   3.6215

     Plottable bands (eV) written to file mob2_bands.bands.gnu
     Bands written to file mob2_bands.bands

 **************************************************************************

                    xk=(   0.00000,   0.00000,   0.00000  )

     point group D_6h(6/mmm)
     there are 12 classes
     the character table:

       E     2C6   2C3   C2    3C2'  3C2'' i     2S3   2S6   s_h   3s_d  3s_v 
A_1g   1.00  1.00  1.00  1.00  1.00  1.00  1.00  1.00  1.00  1.00  1.00  1.00
A_2g   1.00  1.00  1.00  1.00 -1.00 -1.00  1.00  1.00  1.00  1.00 -1.00 -1.00
B_1g   1.00 -1.00  1.00 -1.00  1.00 -1.00  1.00 -1.00  1.00 -1.00  1.00 -1.00
B_2g   1.00 -1.00  1.00 -1.00 -1.00  1.00  1.00 -1.00  1.00 -1.00 -1.00  1.00
E_1g   2.00  1.00 -1.00 -2.00  0.00  0.00  2.00  1.00 -1.00 -2.00  0.00  0.00
E_2g   2.00 -1.00 -1.00  2.00  0.00  0.00  2.00 -1.00 -1.00  2.00  0.00  0.00
A_1u   1.00  1.00  1.00  1.00  1.00  1.00 -1.00 -1.00 -1.00 -1.00 -1.00 -1.00
A_2u   1.00  1.00  1.00  1.00 -1.00 -1.00 -1.00 -1.00 -1.00 -1.00  1.00  1.00
B_1u   1.00 -1.00  1.00 -1.00  1.00 -1.00 -1.00  1.00 -1.00  1.00 -1.00  1.00
B_2u   1.00 -1.00  1.00 -1.00 -1.00  1.00 -1.00  1.00 -1.00  1.00  1.00 -1.00
E_1u   2.00  1.00 -1.00 -2.00  0.00  0.00 -2.00 -1.00  1.00  2.00  0.00  0.00
E_2u   2.00 -1.00 -1.00  2.00  0.00  0.00 -2.00  1.00  1.00 -2.00  0.00  0.00

     the symmetry operations in each class and the name of the first element:

     E        1
                                                                 
     2C6      5    6
                                                                 
     2C3      7    8
                                                                 
     C2       2
                                                                 
     3C2'     4   12   11
                                                                 
     3C2''    3    9   10
                                                                 
     i       13
                                                                 
     2S3     17   18
                                                                 
     2S6     19   20
                                                                 
     s_h     14
                                                                 
     3s_d    16   24   23
                                                                 
     3s_v    15   21   22
                                                                 

     Band symmetry, D_6h(6/mmm) point group:

     e(  1 -  1) =    -37.45687  eV     1   --> A_1g           
     e(  2 -  2) =    -11.75005  eV     1   --> A_2u           
     e(  3 -  4) =    -11.13464  eV     2   --> E_1u           
     e(  5 -  5) =      8.12339  eV     1   --> A_1g           
     e(  6 -  6) =     18.15503  eV     1   --> A_1g           
     e(  7 -  8) =     18.51830  eV     2   --> E_2g           
     e(  9 -  9) =     20.58504  eV     1   --> A_2u           
     e( 10 - 11) =     24.75055  eV     2   --> E_1g           
     e( 12 - 13) =     27.62488  eV     2   --> E_2g           
     e( 14 - 15) =     29.44872  eV     2   --> E_1u           
     e( 16 - 16) =     30.41371  eV     1   --> B_2u           
     e( 17 - 17) =     33.72054  eV     1   --> B_1g           
     e( 18 - 18) =     36.14451  eV     1   --> A_1g           
     e( 19 - 20) =     42.33719  eV     2   --> E_2u           

 **************************************************************************

 **************************************************************************

                    xk=(   0.00000,   0.01443,   0.00000  )

     point group C_2v (mm2) 
     there are  4 classes
     the character table:

       E     C2    s_v   s_v' 
A_1    1.00  1.00  1.00  1.00
A_2    1.00  1.00 -1.00 -1.00
B_1    1.00 -1.00  1.00 -1.00
B_2    1.00 -1.00 -1.00  1.00

     the symmetry operations in each class and the name of the first element:

     E        1
                                                                 
     C2       2
                                                                 
     s_v      3
                                                                 
     s_v'     4
                                                                 

     Band symmetry, C_2v (mm2)  point group:

     e(  1 -  1) =    -37.45663  eV     1   --> A_1  D_1  S_1  
     e(  2 -  2) =    -11.74972  eV     1   --> B_2  D_4  S_4  
     e(  3 -  3) =    -11.13662  eV     1   --> A_1  D_1  S_1  
     e(  4 -  4) =    -11.13508  eV     1   --> B_1  D_3  S_3  
     e(  5 -  5) =      8.12722  eV     1   --> A_1  D_1  S_1  
     e(  6 -  6) =     18.15833  eV     1   --> A_1  D_1  S_1  
     e(  7 -  7) =     18.50935  eV     1   --> A_1  D_1  S_1  
     e(  8 -  8) =     18.52030  eV     1   --> B_1  D_3  S_3  
     e(  9 -  9) =     20.57368  eV     1   --> B_2  D_4  S_4  
     e( 10 - 10) =     24.74857  eV     1   --> A_2  D_2  S_2  
     e( 11 - 11) =     24.76497  eV     1   --> B_2  D_4  S_4  
     e( 12 - 12) =     27.58911  eV     1   --> A_1  D_1  S_1  
     e( 13 - 13) =     27.59534  eV     1   --> B_1  D_3  S_3  
     e( 14 - 14) =     29.47917  eV     1   --> A_1  D_1  S_1  
     e( 15 - 15) =     29.48611  eV     1   --> B_1  D_3  S_3  
     e( 16 - 16) =     30.42737  eV     1   --> A_1  D_1  S_1  
     e( 17 - 17) =     33.70307  eV     1   --> B_2  D_4  S_4  
     e( 18 - 18) =     36.14605  eV     1   --> A_1  D_1  S_1  
     e( 19 - 19) =     42.34503  eV     1   --> A_2  D_2  S_2  
     e( 20 - 20) =     42.36509  eV     1   --> B_2  D_4  S_4  

 **************************************************************************

 **************************************************************************

                    xk=(   0.00000,   0.02887,   0.00000  )

     Band symmetry, C_2v (mm2)  point group:

     e(  1 -  1) =    -37.45587  eV     1   --> A_1  D_1  S_1  
     e(  2 -  2) =    -11.74873  eV     1   --> B_2  D_4  S_4  
     e(  3 -  3) =    -11.14253  eV     1   --> A_1  D_1  S_1  
     e(  4 -  4) =    -11.13640  eV     1   --> B_1  D_3  S_3  
     e(  5 -  5) =      8.13886  eV     1   --> A_1  D_1  S_1  
     e(  6 -  6) =     18.16817  eV     1   --> A_1  D_1  S_1  
     e(  7 -  7) =     18.48521  eV     1   --> A_1  D_1  S_1  
     e(  8 -  8) =     18.52718  eV     1   --> B_1  D_3  S_3  
     e(  9 -  9) =     20.54033  eV     1   --> B_2  D_4  S_4  
     e( 10 - 10) =     24.74264  eV     1   --> A_2  D_2  S_2  
     e( 11 - 11) =     24.80766  eV     1   --> B_2  D_4  S_4  
     e( 12 - 12) =     27.49548  eV     1   --> A_1  D_1  S_1  
     e( 13 - 13) =     27.51565  eV     1   --> B_1  D_3  S_3  
     e( 14 - 14) =     29.56645  eV     1   --> A_1  D_1  S_1  
     e( 15 - 15) =     29.59265  eV     1   --> B_1  D_3  S_3  
     e( 16 - 16) =     30.47149  eV     1   --> A_1  D_1  S_1  
     e( 17 - 17) =     33.65256  eV     1   --> B_2  D_4  S_4  
     e( 18 - 18) =     36.15260  eV     1   --> A_1  D_1  S_1  
     e( 19 - 19) =     42.36901  eV     1   --> A_2  D_2  S_2  
     e( 20 - 20) =     42.44823  eV     1   --> B_2  D_4  S_4  

 **************************************************************************

 **************************************************************************

                    xk=(   0.00000,   0.04330,   0.00000  )

     Band symmetry, C_2v (mm2)  point group:

     e(  1 -  1) =    -37.45460  eV     1   --> A_1  D_1  S_1  
     e(  2 -  2) =    -11.74709  eV     1   --> B_2  D_4  S_4  
     e(  3 -  3) =    -11.15234  eV     1   --> A_1  D_1  S_1  
     e(  4 -  4) =    -11.13858  eV     1   --> B_1  D_3  S_3  
     e(  5 -  5) =      8.15828  eV     1   --> A_1  D_1  S_1  
     e(  6 -  6) =     18.18441  eV     1   --> A_1  D_1  S_1  
     e(  7 -  7) =     18.44543  eV     1   --> A_1  D_1  S_1  
     e(  8 -  8) =     18.53791  eV     1   --> B_1  D_3  S_3  
     e(  9 -  9) =     20.48682  eV     1   --> B_2  D_4  S_4  
     e( 10 - 10) =     24.73280  eV     1   --> A_2  D_2  S_2  
     e( 11 - 11) =     24.87699  eV     1   --> B_2  D_4  S_4  
     e( 12 - 12) =     27.35658  eV     1   --> A_1  D_1  S_1  
     e( 13 - 13) =     27.39757  eV     1   --> B_1  D_3  S_3  
     e( 14 - 14) =     29.69633  eV     1   --> A_1  D_1  S_1  
     e( 15 - 15) =     29.75358  eV     1   --> B_1  D_3  S_3  
     e( 16 - 16) =     30.54364  eV     1   --> A_1  D_1  S_1  
     e( 17 - 17) =     33.57077  eV     1   --> B_2  D_4  S_4  
     e( 18 - 18) =     36.16333  eV     1   --> A_1  D_1  S_1  
     e( 19 - 19) =     42.40889  eV     1   --> A_2  D_2  S_2  
     e( 20 - 20) =     42.58449  eV     1   --> B_2  D_4  S_4  

 **************************************************************************

 **************************************************************************

                    xk=(   0.00000,   0.05774,   0.00000  )

     Band symmetry, C_2v (mm2)  point group:

     e(  1 -  1) =    -37.45284  eV     1   --> A_1  D_1  S_1  
     e(  2 -  2) =    -11.74481  eV     1   --> B_2  D_4  S_4  
     e(  3 -  3) =    -11.16596  eV     1   --> A_1  D_1  S_1  
     e(  4 -  4) =    -11.14161  eV     1   --> B_1  D_3  S_3  
     e(  5 -  5) =      8.18526  eV     1   --> A_1  D_1  S_1  
     e(  6 -  6) =     18.20671  eV     1   --> A_1  D_1  S_1  
     e(  7 -  7) =     18.39072  eV     1   --> A_1  D_1  S_1  
     e(  8 -  8) =     18.55363  eV     1   --> B_1  D_3  S_3  
     e(  9 -  9) =     20.41446  eV     1   --> B_2  D_4  S_4  
     e( 10 - 10) =     24.71917  eV     1   --> A_2  D_2  S_2  
     e( 11 - 11) =     24.97050  eV     1   --> B_2  D_4  S_4  
     e( 12 - 12) =     27.18731  eV     1   --> A_1  D_1  S_1  
     e( 13 - 13) =     27.25935  eV     1   --> B_1  D_3  S_3  
     e( 14 - 14) =     29.85253  eV     1   --> A_1  D_1  S_1  
     e( 15 - 15) =     29.95467  eV     1   --> B_1  D_3  S_3  
     e( 16 - 16) =     30.64369  eV     1   --> A_1  D_1  S_1  
     e( 17 - 17) =     33.46163  eV     1   --> B_2  D_4  S_4  
     e( 18 - 18) =     36.17816  eV     1   --> A_1  D_1  S_1  
     e( 19 - 19) =     42.46459  eV     1   --> A_2  D_2  S_2  
     e( 20 - 20) =     42.77011  eV     1   --> B_2  D_4  S_4  

 **************************************************************************

 **************************************************************************

                    xk=(   0.00000,   0.07217,   0.00000  )

     Band symmetry, C_2v (mm2)  point group:

     e(  1 -  1) =    -37.45058  eV     1   --> A_1  D_1  S_1  
     e(  2 -  2) =    -11.74190  eV     1   --> B_2  D_4  S_4  
     e(  3 -  3) =    -11.18329  eV     1   --> A_1  D_1  S_1  
     e(  4 -  4) =    -11.14548  eV     1   --> B_1  D_3  S_3  
     e(  5 -  5) =      8.22000  eV     1   --> A_1  D_1  S_1  
     e(  6 -  6) =     18.23425  eV     1   --> A_1  D_1  S_1  
     e(  7 -  7) =     18.32242  eV     1   --> A_1  D_1  S_1  
     e(  8 -  8) =     18.57352  eV     1   --> B_1  D_3  S_3  
     e(  9 -  9) =     20.32717  eV     1   --> B_2  D_4  S_4  
     e( 10 - 10) =     24.70185  eV     1   --> A_2  D_2  S_2  
     e( 11 - 11) =     25.08530  eV     1   --> B_2  D_4  S_4  
     e( 12 - 12) =     26.99945  eV     1   --> A_1  D_1  S_1  
     e( 13 - 13) =     27.11015  eV     1   --> B_1  D_3  S_3  
     e( 14 - 14) =     30.02605  eV     1   --> A_1  D_1  S_1  
     e( 15 - 15) =     30.18622  eV     1   --> B_1  D_3  S_3  
     e( 16 - 16) =     30.76935  eV     1   --> A_1  D_1  S_1  
     e( 17 - 17) =     33.32927  eV     1   --> B_2  D_4  S_4  
     e( 18 - 18) =     36.19704  eV     1   --> A_1  D_1  S_1  
     e( 19 - 19) =     42.53630  eV     1   --> A_2  D_2  S_2  
     e( 20 - 20) =     43.00125  eV     1   --> B_2  D_4  S_4  

 **************************************************************************

 **************************************************************************

                    xk=(   0.00000,   0.08660,   0.00000  )

     Band symmetry, C_2v (mm2)  point group:

     e(  1 -  1) =    -37.44785  eV     1   --> A_1  D_1  S_1  
     e(  2 -  2) =    -11.73837  eV     1   --> B_2  D_4  S_4  
     e(  3 -  3) =    -11.20420  eV     1   --> A_1  D_1  S_1  
     e(  4 -  4) =    -11.15015  eV     1   --> B_1  D_3  S_3  
     e(  5 -  5) =      8.26194  eV     1   --> A_1  D_1  S_1  
     e(  6 -  6) =     18.23428  eV     1   --> A_1  D_1  S_1  
     e(  7 -  7) =     18.27379  eV     1   --> A_1  D_1  S_1  
     e(  8 -  8) =     18.59731  eV     1   --> B_1  D_3  S_3  
     e(  9 -  9) =     20.22589  eV     1   --> B_2  D_4  S_4  
     e( 10 - 10) =     24.68100  eV     1   --> A_2  D_2  S_2  
     e( 11 - 11) =     25.21800  eV     1   --> B_2  D_4  S_4  
     e( 12 - 12) =     26.80103  eV     1   --> A_1  D_1  S_1  
     e( 13 - 13) =     26.95686  eV     1   --> B_1  D_3  S_3  
     e( 14 - 14) =     30.20852  eV     1   --> A_1  D_1  S_1  
     e( 15 - 15) =     30.43865  eV     1   --> B_1  D_3  S_3  
     e( 16 - 16) =     30.91866  eV     1   --> A_1  D_1  S_1  
     e( 17 - 17) =     33.17845  eV     1   --> B_2  D_4  S_4  
     e( 18 - 18) =     36.21866  eV     1   --> A_1  D_1  S_1  
     e( 19 - 19) =     42.62306  eV     1   --> A_2  D_2  S_2  
     e( 20 - 20) =     43.27323  eV     1   --> B_2  D_4  S_4  

 **************************************************************************

 **************************************************************************

                    xk=(   0.00000,   0.10104,   0.00000  )

     Band symmetry, C_2v (mm2)  point group:

     e(  1 -  1) =    -37.44465  eV     1   --> A_1  D_1  S_1  
     e(  2 -  2) =    -11.73426  eV     1   --> B_2  D_4  S_4  
     e(  3 -  3) =    -11.22854  eV     1   --> A_1  D_1  S_1  
     e(  4 -  4) =    -11.15560  eV     1   --> B_1  D_3  S_3  
     e(  5 -  5) =      8.31131  eV     1   --> A_1  D_1  S_1  
     e(  6 -  6) =     18.14359  eV     1   --> A_1  D_1  S_1  
     e(  7 -  7) =     18.30934  eV     1   --> A_1  D_1  S_1  
     e(  8 -  8) =     18.62493  eV     1   --> B_1  D_3  S_3  
     e(  9 -  9) =     20.11415  eV     1   --> B_2  D_4  S_4  
     e( 10 - 10) =     24.65681  eV     1   --> A_2  D_2  S_2  
     e( 11 - 11) =     25.36535  eV     1   --> B_2  D_4  S_4  
     e( 12 - 12) =     26.59879  eV     1   --> A_1  D_1  S_1  
     e( 13 - 13) =     26.80459  eV     1   --> B_1  D_3  S_3  
     e( 14 - 14) =     30.39707  eV     1   --> A_1  D_1  S_1  
     e( 15 - 15) =     30.70912  eV     1   --> B_1  D_3  S_3  
     e( 16 - 16) =     31.08983  eV     1   --> A_1  D_1  S_1  
     e( 17 - 17) =     33.01405  eV     1   --> B_2  D_4  S_4  
     e( 18 - 18) =     36.24284  eV     1   --> A_1  D_1  S_1  
     e( 19 - 19) =     42.72499  eV     1   --> A_2  D_2  S_2  
     e( 20 - 20) =     43.58163  eV     1   --> B_2  D_4  S_4  

 **************************************************************************

 **************************************************************************

                    xk=(   0.00000,   0.11547,   0.00000  )

     Band symmetry, C_2v (mm2)  point group:

     e(  1 -  1) =    -37.44103  eV     1   --> A_1  D_1  S_1  
     e(  2 -  2) =    -11.72957  eV     1   --> B_2  D_4  S_4  
     e(  3 -  3) =    -11.25612  eV     1   --> A_1  D_1  S_1  
     e(  4 -  4) =    -11.16178  eV     1   --> B_1  D_3  S_3  
     e(  5 -  5) =      8.36801  eV     1   --> A_1  D_1  S_1  
     e(  6 -  6) =     18.03843  eV     1   --> A_1  D_1  S_1  
     e(  7 -  7) =     18.35191  eV     1   --> A_1  D_1  S_1  
     e(  8 -  8) =     18.65557  eV     1   --> B_1  D_3  S_3  
     e(  9 -  9) =     19.99545  eV     1   --> B_2  D_4  S_4  
     e( 10 - 10) =     24.62948  eV     1   --> A_2  D_2  S_2  
     e( 11 - 11) =     25.52449  eV     1   --> B_2  D_4  S_4  
     e( 12 - 12) =     26.39526  eV     1   --> A_1  D_1  S_1  
     e( 13 - 13) =     26.65620  eV     1   --> B_1  D_3  S_3  
     e( 14 - 14) =     30.58575  eV     1   --> A_1  D_1  S_1  
     e( 15 - 15) =     30.99338  eV     1   --> B_1  D_3  S_3  
     e( 16 - 16) =     31.28109  eV     1   --> A_1  D_1  S_1  
     e( 17 - 17) =     32.84085  eV     1   --> B_2  D_4  S_4  
     e( 18 - 18) =     36.26878  eV     1   --> A_1  D_1  S_1  
     e( 19 - 19) =     42.84187  eV     1   --> A_2  D_2  S_2  
     e( 20 - 20) =     43.92215  eV     1   --> B_2  D_4  S_4  

 **************************************************************************

 **************************************************************************

                    xk=(   0.00000,   0.12990,   0.00000  )

     Band symmetry, C_2v (mm2)  point group:

     e(  1 -  1) =    -37.43698  eV     1   --> A_1  D_1  S_1  
     e(  2 -  2) =    -11.72435  eV     1   --> B_2  D_4  S_4  
     e(  3 -  3) =    -11.28674  eV     1   --> A_1  D_1  S_1  
     e(  4 -  4) =    -11.16867  eV     1   --> B_1  D_3  S_3  
     e(  5 -  5) =      8.43122  eV     1   --> A_1  D_1  S_1  
     e(  6 -  6) =     17.92405  eV     1   --> A_1  D_1  S_1  
     e(  7 -  7) =     18.39809  eV     1   --> A_1  D_1  S_1  
     e(  8 -  8) =     18.68906  eV     1   --> B_1  D_3  S_3  
     e(  9 -  9) =     19.86981  eV     1   --> B_2  D_4  S_4  
     e( 10 - 10) =     24.59925  eV     1   --> A_2  D_2  S_2  
     e( 11 - 11) =     25.69152  eV     1   --> B_2  D_4  S_4  
     e( 12 - 12) =     26.19621  eV     1   --> A_1  D_1  S_1  
     e( 13 - 13) =     26.51409  eV     1   --> B_1  D_3  S_3  
     e( 14 - 14) =     30.77246  eV     1   --> A_1  D_1  S_1  
     e( 15 - 15) =     31.29001  eV     1   --> B_1  D_3  S_3  
     e( 16 - 16) =     31.49161  eV     1   --> A_1  D_1  S_1  
     e( 17 - 17) =     32.66471  eV     1   --> B_2  D_4  S_4  
     e( 18 - 18) =     36.29556  eV     1   --> A_1  D_1  S_1  
     e( 19 - 19) =     42.97341  eV     1   --> A_2  D_2  S_2  
     e( 20 - 20) =     44.29069  eV     1   --> B_2  D_4  S_4  

 **************************************************************************

 **************************************************************************

                    xk=(   0.00000,   0.14434,   0.00000  )

     Band symmetry, C_2v (mm2)  point group:

     e(  1 -  1) =    -37.43254  eV     1   --> A_1  D_1  S_1  
     e(  2 -  2) =    -11.71861  eV     1   --> B_2  D_4  S_4  
     e(  3 -  3) =    -11.32017  eV     1   --> A_1  D_1  S_1  
     e(  4 -  4) =    -11.17621  eV     1   --> B_1  D_3  S_3  
     e(  5 -  5) =      8.50118  eV     1   --> A_1  D_1  S_1  
     e(  6 -  6) =     17.80059  eV     1   --> A_1  D_1  S_1  
     e(  7 -  7) =     18.44684  eV     1   --> A_1  D_1  S_1  
     e(  8 -  8) =     18.72493  eV     1   --> B_1  D_3  S_3  
     e(  9 -  9) =     19.73993  eV     1   --> B_2  D_4  S_4  
     e( 10 - 10) =     24.56636  eV     1   --> A_2  D_2  S_2  
     e( 11 - 11) =     25.86361  eV     1   --> B_2  D_4  S_4  
     e( 12 - 12) =     26.00152  eV     1   --> A_1  D_1  S_1  
     e( 13 - 13) =     26.37988  eV     1   --> B_1  D_3  S_3  
     e( 14 - 14) =     30.95589  eV     1   --> A_1  D_1  S_1  
     e( 15 - 15) =     31.59728  eV     1   --> B_1  D_3  S_3  
     e( 16 - 16) =     31.72056  eV     1   --> A_1  D_1  S_1  
     e( 17 - 17) =     32.48775  eV     1   --> B_2  D_4  S_4  
     e( 18 - 18) =     36.32212  eV     1   --> A_1  D_1  S_1  
     e( 19 - 19) =     43.11901  eV     1   --> A_2  D_2  S_2  
     e( 20 - 20) =     44.68351  eV     1   --> B_2  D_4  S_4  

 **************************************************************************

 **************************************************************************

                    xk=(   0.00000,   0.15877,   0.00000  )

     Band symmetry, C_2v (mm2)  point group:

     e(  1 -  1) =    -37.42773  eV     1   --> A_1  D_1  S_1  
     e(  2 -  2) =    -11.71240  eV     1   --> B_2  D_4  S_4  
     e(  3 -  3) =    -11.35619  eV     1   --> A_1  D_1  S_1  
     e(  4 -  4) =    -11.18435  eV     1   --> B_1  D_3  S_3  
     e(  5 -  5) =      8.57753  eV     1   --> A_1  D_1  S_1  
     e(  6 -  6) =     17.66922  eV     1   --> A_1  D_1  S_1  
     e(  7 -  7) =     18.49702  eV     1   --> A_1  D_1  S_1  
     e(  8 -  8) =     18.76271  eV     1   --> B_1  D_3  S_3  
     e(  9 -  9) =     19.60750  eV     1   --> B_2  D_4  S_4  
     e( 10 - 10) =     24.53108  eV     1   --> A_2  D_2  S_2  
     e( 11 - 11) =     25.81496  eV     1   --> A_1  D_1  S_1  
     e( 12 - 12) =     26.03757  eV     1   --> B_2  D_4  S_4  
     e( 13 - 13) =     26.25476  eV     1   --> B_1  D_3  S_3  
     e( 14 - 14) =     31.13098  eV     1   --> A_1  D_1  S_1  
     e( 15 - 15) =     31.91426  eV     1   --> B_1  D_3  S_3  
     e( 16 - 16) =     31.96751  eV     1   --> A_1  D_1  S_1  
     e( 17 - 17) =     32.31506  eV     1   --> B_2  D_4  S_4  
     e( 18 - 18) =     36.34711  eV     1   --> A_1  D_1  S_1  
     e( 19 - 19) =     43.27842  eV     1   --> A_2  D_2  S_2  
     e( 20 - 20) =     45.09706  eV     1   --> B_2  D_4  S_4  

 **************************************************************************

 **************************************************************************

                    xk=(   0.00000,   0.17321,   0.00000  )

     Band symmetry, C_2v (mm2)  point group:

     e(  1 -  1) =    -37.42258  eV     1   --> A_1  D_1  S_1  
     e(  2 -  2) =    -11.70576  eV     1   --> B_2  D_4  S_4  
     e(  3 -  3) =    -11.39452  eV     1   --> A_1  D_1  S_1  
     e(  4 -  4) =    -11.19304  eV     1   --> B_1  D_3  S_3  
     e(  5 -  5) =      8.66014  eV     1   --> A_1  D_1  S_1  
     e(  6 -  6) =     17.53178  eV     1   --> A_1  D_1  S_1  
     e(  7 -  7) =     18.54741  eV     1   --> A_1  D_1  S_1  
     e(  8 -  8) =     18.80229  eV     1   --> B_1  D_3  S_3  
     e(  9 -  9) =     19.47393  eV     1   --> B_2  D_4  S_4  
     e( 10 - 10) =     24.49371  eV     1   --> A_2  D_2  S_2  
     e( 11 - 11) =     25.63911  eV     1   --> A_1  D_1  S_1  
     e( 12 - 12) =     26.14024  eV     1   --> B_1  D_3  S_3  
     e( 13 - 13) =     26.21028  eV     1   --> B_2  D_4  S_4  
     e( 14 - 14) =     31.29910  eV     1   --> A_1  D_1  S_1  
     e( 15 - 15) =     32.15192  eV     1   --> B_2  D_4  S_4  
     e( 16 - 16) =     32.23171  eV     1   --> A_1  D_1  S_1  
     e( 17 - 17) =     32.24012  eV     1   --> B_1  D_3  S_3  
     e( 18 - 18) =     36.36923  eV     1   --> A_1  D_1  S_1  
     e( 19 - 19) =     43.45167  eV     1   --> A_2  D_2  S_2  
     e( 20 - 20) =     45.52858  eV     1   --> B_2  D_4  S_4  

 **************************************************************************

 **************************************************************************

                    xk=(   0.00000,   0.18764,   0.00000  )

     Band symmetry, C_2v (mm2)  point group:

     e(  1 -  1) =    -37.41713  eV     1   --> A_1  D_1  S_1  
     e(  2 -  2) =    -11.69871  eV     1   --> B_2  D_4  S_4  
     e(  3 -  3) =    -11.43491  eV     1   --> A_1  D_1  S_1  
     e(  4 -  4) =    -11.20223  eV     1   --> B_1  D_3  S_3  
     e(  5 -  5) =      8.74853  eV     1   --> A_1  D_1  S_1  
     e(  6 -  6) =     17.38870  eV     1   --> A_1  D_1  S_1  
     e(  7 -  7) =     18.59663  eV     1   --> A_1  D_1  S_1  
     e(  8 -  8) =     18.84230  eV     1   --> B_1  D_3  S_3  
     e(  9 -  9) =     19.34011  eV     1   --> B_2  D_4  S_4  
     e( 10 - 10) =     24.45450  eV     1   --> A_2  D_2  S_2  
     e( 11 - 11) =     25.47601  eV     1   --> A_1  D_1  S_1  
     e( 12 - 12) =     26.03591  eV     1   --> B_1  D_3  S_3  
     e( 13 - 13) =     26.37811  eV     1   --> B_2  D_4  S_4  
     e( 14 - 14) =     31.45527  eV     1   --> A_1  D_1  S_1  
     e( 15 - 15) =     32.00076  eV     1   --> B_2  D_4  S_4  
     e( 16 - 16) =     32.51210  eV     1   --> A_1  D_1  S_1  
     e( 17 - 17) =     32.57412  eV     1   --> B_1  D_3  S_3  
     e( 18 - 18) =     36.38497  eV     1   --> A_1  D_1  S_1  
     e( 19 - 19) =     43.63741  eV     1   --> A_2  D_2  S_2  
     e( 20 - 20) =     45.97355  eV     1   --> B_2  D_4  S_4  

 **************************************************************************

 **************************************************************************

                    xk=(   0.00000,   0.20207,   0.00000  )

     Band symmetry, C_2v (mm2)  point group:

     e(  1 -  1) =    -37.41141  eV     1   --> A_1  D_1  S_1  
     e(  2 -  2) =    -11.69131  eV     1   --> B_2  D_4  S_4  
     e(  3 -  3) =    -11.47708  eV     1   --> A_1  D_1  S_1  
     e(  4 -  4) =    -11.21185  eV     1   --> B_1  D_3  S_3  
     e(  5 -  5) =      8.84282  eV     1   --> A_1  D_1  S_1  
     e(  6 -  6) =     17.24121  eV     1   --> A_1  D_1  S_1  
     e(  7 -  7) =     18.64329  eV     1   --> A_1  D_1  S_1  
     e(  8 -  8) =     18.88260  eV     1   --> B_1  D_3  S_3  
     e(  9 -  9) =     19.20708  eV     1   --> B_2  D_4  S_4  
     e( 10 - 10) =     24.41377  eV     1   --> A_2  D_2  S_2  
     e( 11 - 11) =     25.32810  eV     1   --> A_1  D_1  S_1  
     e( 12 - 12) =     25.94299  eV     1   --> B_1  D_3  S_3  
     e( 13 - 13) =     26.53761  eV     1   --> B_2  D_4  S_4  
     e( 14 - 14) =     31.60086  eV     1   --> A_1  D_1  S_1  
     e( 15 - 15) =     31.86668  eV     1   --> B_2  D_4  S_4  
     e( 16 - 16) =     32.80738  eV     1   --> A_1  D_1  S_1  
     e( 17 - 17) =     32.91581  eV     1   --> B_1  D_3  S_3  
     e( 18 - 18) =     36.39656  eV     1   --> A_1  D_1  S_1  
     e( 19 - 19) =     43.83563  eV     1   --> A_2  D_2  S_2  
     e( 20 - 20) =     46.42885  eV     1   --> B_2  D_4  S_4  

 **************************************************************************

 **************************************************************************

                    xk=(   0.00000,   0.21651,   0.00000  )

     Band symmetry, C_2v (mm2)  point group:

     e(  1 -  1) =    -37.40544  eV     1   --> A_1  D_1  S_1  
     e(  2 -  2) =    -11.68359  eV     1   --> B_2  D_4  S_4  
     e(  3 -  3) =    -11.52073  eV     1   --> A_1  D_1  S_1  
     e(  4 -  4) =    -11.22184  eV     1   --> B_1  D_3  S_3  
     e(  5 -  5) =      8.94255  eV     1   --> A_1  D_1  S_1  
     e(  6 -  6) =     17.09016  eV     1   --> A_1  D_1  S_1  
     e(  7 -  7) =     18.68584  eV     1   --> A_1  D_1  S_1  
     e(  8 -  8) =     18.92264  eV     1   --> B_1  D_3  S_3  
     e(  9 -  9) =     19.07561  eV     1   --> B_2  D_4  S_4  
     e( 10 - 10) =     24.37180  eV     1   --> A_2  D_2  S_2  
     e( 11 - 11) =     25.19743  eV     1   --> A_1  D_1  S_1  
     e( 12 - 12) =     25.86192  eV     1   --> B_1  D_3  S_3  
     e( 13 - 13) =     26.68504  eV     1   --> B_2  D_4  S_4  
     e( 14 - 14) =     31.73543  eV     1   --> A_1  D_1  S_1  
     e( 15 - 15) =     31.75385  eV     1   --> B_2  D_4  S_4  
     e( 16 - 16) =     33.11603  eV     1   --> A_1  D_1  S_1  
     e( 17 - 17) =     33.26466  eV     1   --> B_1  D_3  S_3  
     e( 18 - 18) =     36.40062  eV     1   --> A_1  D_1  S_1  
     e( 19 - 19) =     44.04579  eV     1   --> A_2  D_2  S_2  
     e( 20 - 20) =     46.89021  eV     1   --> B_2  D_4  S_4  

 **************************************************************************

 **************************************************************************

                    xk=(   0.00000,   0.23094,   0.00000  )

     Band symmetry, C_2v (mm2)  point group:

     e(  1 -  1) =    -37.39927  eV     1   --> A_1  D_1  S_1  
     e(  2 -  2) =    -11.67560  eV     1   --> B_2  D_4  S_4  
     e(  3 -  3) =    -11.56559  eV     1   --> A_1  D_1  S_1  
     e(  4 -  4) =    -11.23215  eV     1   --> B_1  D_3  S_3  
     e(  5 -  5) =      9.04744  eV     1   --> A_1  D_1  S_1  
     e(  6 -  6) =     16.93630  eV     1   --> A_1  D_1  S_1  
     e(  7 -  7) =     18.72273  eV     1   --> A_1  D_1  S_1  
     e(  8 -  8) =     18.94625  eV     1   --> B_2  D_4  S_4  
     e(  9 -  9) =     18.96187  eV     1   --> B_1  D_3  S_3  
     e( 10 - 10) =     24.32890  eV     1   --> A_2  D_2  S_2  
     e( 11 - 11) =     25.08604  eV     1   --> A_1  D_1  S_1  
     e( 12 - 12) =     25.79307  eV     1   --> B_1  D_3  S_3  
     e( 13 - 13) =     26.81631  eV     1   --> B_2  D_4  S_4  
     e( 14 - 14) =     31.66547  eV     1   --> B_2  D_4  S_4  
     e( 15 - 15) =     31.85885  eV     1   --> A_1  D_1  S_1  
     e( 16 - 16) =     33.43592  eV     1   --> A_1  D_1  S_1  
     e( 17 - 17) =     33.62022  eV     1   --> B_1  D_3  S_3  
     e( 18 - 18) =     36.39550  eV     1   --> A_1  D_1  S_1  
     e( 19 - 19) =     44.26738  eV     1   --> A_2  D_2  S_2  
     e( 20 - 20) =     47.35093  eV     1   --> B_2  D_4  S_4  

 **************************************************************************

 **************************************************************************

                    xk=(   0.00000,   0.24537,   0.00000  )

     Band symmetry, C_2v (mm2)  point group:

     e(  1 -  1) =    -37.39292  eV     1   --> A_1  D_1  S_1  
     e(  2 -  2) =    -11.66740  eV     1   --> B_2  D_4  S_4  
     e(  3 -  3) =    -11.61135  eV     1   --> A_1  D_1  S_1  
     e(  4 -  4) =    -11.24270  eV     1   --> B_1  D_3  S_3  
     e(  5 -  5) =      9.15725  eV     1   --> A_1  D_1  S_1  
     e(  6 -  6) =     16.78030  eV     1   --> A_1  D_1  S_1  
     e(  7 -  7) =     18.75249  eV     1   --> A_1  D_1  S_1  
     e(  8 -  8) =     18.81976  eV     1   --> B_2  D_4  S_4  
     e(  9 -  9) =     18.99976  eV     1   --> B_1  D_3  S_3  
     e( 10 - 10) =     24.28534  eV     1   --> A_2  D_2  S_2  
     e( 11 - 11) =     24.99586  eV     1   --> A_1  D_1  S_1  
     e( 12 - 12) =     25.73666  eV     1   --> B_1  D_3  S_3  
     e( 13 - 13) =     26.92857  eV     1   --> B_2  D_4  S_4  
     e( 14 - 14) =     31.60709  eV     1   --> B_2  D_4  S_4  
     e( 15 - 15) =     31.97117  eV     1   --> A_1  D_1  S_1  
     e( 16 - 16) =     33.76624  eV     1   --> A_1  D_1  S_1  
     e( 17 - 17) =     33.98206  eV     1   --> B_1  D_3  S_3  
     e( 18 - 18) =     36.38031  eV     1   --> A_1  D_1  S_1  
     e( 19 - 19) =     44.49981  eV     1   --> A_2  D_2  S_2  
     e( 20 - 20) =     47.35628  eV     1   --> A_1  D_1  S_1  

 **************************************************************************

 **************************************************************************

                    xk=(   0.00000,   0.25981,   0.00000  )

     Band symmetry, C_2v (mm2)  point group:

     e(  1 -  1) =    -37.38645  eV     1   --> A_1  D_1  S_1  
     e(  2 -  2) =    -11.65903  eV     1   --> B_2  D_4  S_4  
     e(  3 -  3) =    -11.65773  eV     1   --> A_1  D_1  S_1  
     e(  4 -  4) =    -11.25343  eV     1   --> B_1  D_3  S_3  
     e(  5 -  5) =      9.27166  eV     1   --> A_1  D_1  S_1  
     e(  6 -  6) =     16.62272  eV     1   --> A_1  D_1  S_1  
     e(  7 -  7) =     18.69651  eV     1   --> B_2  D_4  S_4  
     e(  8 -  8) =     18.77376  eV     1   --> A_1  D_1  S_1  
     e(  9 -  9) =     19.03586  eV     1   --> B_1  D_3  S_3  
     e( 10 - 10) =     24.24143  eV     1   --> A_2  D_2  S_2  
     e( 11 - 11) =     24.92859  eV     1   --> A_1  D_1  S_1  
     e( 12 - 12) =     25.69280  eV     1   --> B_1  D_3  S_3  
     e( 13 - 13) =     27.01857  eV     1   --> B_2  D_4  S_4  
     e( 14 - 14) =     31.58080  eV     1   --> B_2  D_4  S_4  
     e( 15 - 15) =     32.07241  eV     1   --> A_1  D_1  S_1  
     e( 16 - 16) =     34.10456  eV     1   --> A_1  D_1  S_1  
     e( 17 - 17) =     34.34977  eV     1   --> B_1  D_3  S_3  
     e( 18 - 18) =     36.35398  eV     1   --> A_1  D_1  S_1  
     e( 19 - 19) =     44.74249  eV     1   --> A_2  D_2  S_2  
     e( 20 - 20) =     47.25371  eV     1   --> A_1  D_1  S_1  

 **************************************************************************

 **************************************************************************

                    xk=(   0.00000,   0.27424,   0.00000  )

     Band symmetry, C_2v (mm2)  point group:

     e(  1 -  1) =    -37.37989  eV     1   --> A_1  D_1  S_1  
     e(  2 -  2) =    -11.70441  eV     1   --> A_1  D_1  S_1  
     e(  3 -  3) =    -11.65054  eV     1   --> B_2  D_4  S_4  
     e(  4 -  4) =    -11.26427  eV     1   --> B_1  D_3  S_3  
     e(  5 -  5) =      9.38943  eV     1   --> A_1  D_1  S_1  
     e(  6 -  6) =     16.46453  eV     1   --> A_1  D_1  S_1  
     e(  7 -  7) =     18.57691  eV     1   --> B_2  D_4  S_4  
     e(  8 -  8) =     18.78545  eV     1   --> A_1  D_1  S_1  
     e(  9 -  9) =     19.07023  eV     1   --> B_1  D_3  S_3  
     e( 10 - 10) =     24.19744  eV     1   --> A_2  D_2  S_2  
     e( 11 - 11) =     24.88585  eV     1   --> A_1  D_1  S_1  
     e( 12 - 12) =     25.66145  eV     1   --> B_1  D_3  S_3  
     e( 13 - 13) =     27.08434  eV     1   --> B_2  D_4  S_4  
     e( 14 - 14) =     31.58897  eV     1   --> B_2  D_4  S_4  
     e( 15 - 15) =     32.16273  eV     1   --> A_1  D_1  S_1  
     e( 16 - 16) =     34.44816  eV     1   --> A_1  D_1  S_1  
     e( 17 - 17) =     34.72536  eV     1   --> B_1  D_3  S_3  
     e( 18 - 18) =     36.31476  eV     1   --> A_1  D_1  S_1  
     e( 19 - 19) =     44.99502  eV     1   --> A_2  D_2  S_2  
     e( 20 - 20) =     47.12277  eV     1   --> A_1  D_1  S_1  

 **************************************************************************

 **************************************************************************

                    xk=(   0.00000,   0.28868,   0.00000  )

     Band symmetry, C_2v (mm2)  point group:

     e(  1 -  1) =    -37.37328  eV     1   --> A_1  D_1  S_1  
     e(  2 -  2) =    -11.75114  eV     1   --> A_1  D_1  S_1  
     e(  3 -  3) =    -11.64198  eV     1   --> B_2  D_4  S_4  
     e(  4 -  4) =    -11.27516  eV     1   --> B_1  D_3  S_3  
     e(  5 -  5) =      9.51186  eV     1   --> A_1  D_1  S_1  
     e(  6 -  6) =     16.30523  eV     1   --> A_1  D_1  S_1  
     e(  7 -  7) =     18.46128  eV     1   --> B_2  D_4  S_4  
     e(  8 -  8) =     18.78679  eV     1   --> A_1  D_1  S_1  
     e(  9 -  9) =     19.10146  eV     1   --> B_1  D_3  S_3  
     e( 10 - 10) =     24.15365  eV     1   --> A_2  D_2  S_2  
     e( 11 - 11) =     24.86813  eV     1   --> A_1  D_1  S_1  
     e( 12 - 12) =     25.64233  eV     1   --> B_1  D_3  S_3  
     e( 13 - 13) =     27.12522  eV     1   --> B_2  D_4  S_4  
     e( 14 - 14) =     31.63125  eV     1   --> B_2  D_4  S_4  
     e( 15 - 15) =     32.24185  eV     1   --> A_1  D_1  S_1  
     e( 16 - 16) =     34.79374  eV     1   --> A_1  D_1  S_1  
     e( 17 - 17) =     35.10282  eV     1   --> B_1  D_3  S_3  
     e( 18 - 18) =     36.26666  eV     1   --> A_1  D_1  S_1  
     e( 19 - 19) =     45.25623  eV     1   --> A_2  D_2  S_2  
     e( 20 - 20) =     46.97440  eV     1   --> A_1  D_1  S_1  

 **************************************************************************

 **************************************************************************

                    xk=(   0.00000,   0.30311,   0.00000  )

     Band symmetry, C_2v (mm2)  point group:

     e(  1 -  1) =    -37.36667  eV     1   --> A_1  D_1  S_1  
     e(  2 -  2) =    -11.79760  eV     1   --> A_1  D_1  S_1  
     e(  3 -  3) =    -11.63341  eV     1   --> B_2  D_4  S_4  
     e(  4 -  4) =    -11.28602  eV     1   --> B_1  D_3  S_3  
     e(  5 -  5) =      9.63779  eV     1   --> A_1  D_1  S_1  
     e(  6 -  6) =     16.14559  eV     1   --> A_1  D_1  S_1  
     e(  7 -  7) =     18.34993  eV     1   --> B_2  D_4  S_4  
     e(  8 -  8) =     18.77740  eV     1   --> A_1  D_1  S_1  
     e(  9 -  9) =     19.12976  eV     1   --> B_1  D_3  S_3  
     e( 10 - 10) =     24.11030  eV     1   --> A_2  D_2  S_2  
     e( 11 - 11) =     24.87552  eV     1   --> A_1  D_1  S_1  
     e( 12 - 12) =     25.63533  eV     1   --> B_1  D_3  S_3  
     e( 13 - 13) =     27.14191  eV     1   --> B_2  D_4  S_4  
     e( 14 - 14) =     31.70682  eV     1   --> B_2  D_4  S_4  
     e( 15 - 15) =     32.30990  eV     1   --> A_1  D_1  S_1  
     e( 16 - 16) =     35.13199  eV     1   --> A_1  D_1  S_1  
     e( 17 - 17) =     35.48497  eV     1   --> B_1  D_3  S_3  
     e( 18 - 18) =     36.21584  eV     1   --> A_1  D_1  S_1  
     e( 19 - 19) =     45.52552  eV     1   --> A_2  D_2  S_2  
     e( 20 - 20) =     46.80910  eV     1   --> A_1  D_1  S_1  

 **************************************************************************

 **************************************************************************

                    xk=(   0.00000,   0.31754,   0.00000  )

     Band symmetry, C_2v (mm2)  point group:

     e(  1 -  1) =    -37.36008  eV     1   --> A_1  D_1  S_1  
     e(  2 -  2) =    -11.84352  eV     1   --> A_1  D_1  S_1  
     e(  3 -  3) =    -11.62488  eV     1   --> B_2  D_4  S_4  
     e(  4 -  4) =    -11.29679  eV     1   --> B_1  D_3  S_3  
     e(  5 -  5) =      9.76745  eV     1   --> A_1  D_1  S_1  
     e(  6 -  6) =     15.98605  eV     1   --> A_1  D_1  S_1  
     e(  7 -  7) =     18.24315  eV     1   --> B_2  D_4  S_4  
     e(  8 -  8) =     18.75739  eV     1   --> A_1  D_1  S_1  
     e(  9 -  9) =     19.15513  eV     1   --> B_1  D_3  S_3  
     e( 10 - 10) =     24.06767  eV     1   --> A_2  D_2  S_2  
     e( 11 - 11) =     24.90936  eV     1   --> A_1  D_1  S_1  
     e( 12 - 12) =     25.63986  eV     1   --> B_1  D_3  S_3  
     e( 13 - 13) =     27.13655  eV     1   --> B_2  D_4  S_4  
     e( 14 - 14) =     31.81372  eV     1   --> B_2  D_4  S_4  
     e( 15 - 15) =     32.36660  eV     1   --> A_1  D_1  S_1  
     e( 16 - 16) =     35.44354  eV     1   --> A_1  D_1  S_1  
     e( 17 - 17) =     35.87152  eV     1   --> B_1  D_3  S_3  
     e( 18 - 18) =     36.18281  eV     1   --> A_1  D_1  S_1  
     e( 19 - 19) =     45.80231  eV     1   --> A_2  D_2  S_2  
     e( 20 - 20) =     46.63095  eV     1   --> A_1  D_1  S_1  

 **************************************************************************

 **************************************************************************

                    xk=(   0.00000,   0.33198,   0.00000  )

     Band symmetry, C_2v (mm2)  point group:

     e(  1 -  1) =    -37.35357  eV     1   --> A_1  D_1  S_1  
     e(  2 -  2) =    -11.88863  eV     1   --> A_1  D_1  S_1  
     e(  3 -  3) =    -11.61644  eV     1   --> B_2  D_4  S_4  
     e(  4 -  4) =    -11.30740  eV     1   --> B_1  D_3  S_3  
     e(  5 -  5) =      9.90036  eV     1   --> A_1  D_1  S_1  
     e(  6 -  6) =     15.82685  eV     1   --> A_1  D_1  S_1  
     e(  7 -  7) =     18.14134  eV     1   --> B_2  D_4  S_4  
     e(  8 -  8) =     18.72739  eV     1   --> A_1  D_1  S_1  
     e(  9 -  9) =     19.17735  eV     1   --> B_1  D_3  S_3  
     e( 10 - 10) =     24.02599  eV     1   --> A_2  D_2  S_2  
     e( 11 - 11) =     24.96857  eV     1   --> A_1  D_1  S_1  
     e( 12 - 12) =     25.65530  eV     1   --> B_1  D_3  S_3  
     e( 13 - 13) =     27.11240  eV     1   --> B_2  D_4  S_4  
     e( 14 - 14) =     31.94832  eV     1   --> B_2  D_4  S_4  
     e( 15 - 15) =     32.41187  eV     1   --> A_1  D_1  S_1  
     e( 16 - 16) =     35.65485  eV     1   --> A_1  D_1  S_1  
     e( 17 - 17) =     36.23964  eV     1   --> A_1  D_1  S_1  
     e( 18 - 18) =     36.26178  eV     1   --> B_1  D_3  S_3  
     e( 19 - 19) =     46.08605  eV     1   --> A_2  D_2  S_2  
     e( 20 - 20) =     46.44603  eV     1   --> A_1  D_1  S_1  

 **************************************************************************

 **************************************************************************

                    xk=(   0.00000,   0.34641,   0.00000  )

     Band symmetry, C_2v (mm2)  point group:

     e(  1 -  1) =    -37.34717  eV     1   --> A_1  D_1  S_1  
     e(  2 -  2) =    -11.93268  eV     1   --> A_1  D_1  S_1  
     e(  3 -  3) =    -11.60815  eV     1   --> B_2  D_4  S_4  
     e(  4 -  4) =    -11.31780  eV     1   --> B_1  D_3  S_3  
     e(  5 -  5) =     10.03535  eV     1   --> A_1  D_1  S_1  
     e(  6 -  6) =     15.66812  eV     1   --> A_1  D_1  S_1  
     e(  7 -  7) =     18.04418  eV     1   --> B_2  D_4  S_4  
     e(  8 -  8) =     18.68804  eV     1   --> A_1  D_1  S_1  
     e(  9 -  9) =     19.19594  eV     1   --> B_1  D_3  S_3  
     e( 10 - 10) =     23.98548  eV     1   --> A_2  D_2  S_2  
     e( 11 - 11) =     25.05162  eV     1   --> A_1  D_1  S_1  
     e( 12 - 12) =     25.68049  eV     1   --> B_1  D_3  S_3  
     e( 13 - 13) =     27.07210  eV     1   --> B_2  D_4  S_4  
     e( 14 - 14) =     32.10531  eV     1   --> B_2  D_4  S_4  
     e( 15 - 15) =     32.44448  eV     1   --> A_1  D_1  S_1  
     e( 16 - 16) =     35.68406  eV     1   --> A_1  D_1  S_1  
     e( 17 - 17) =     36.46328  eV     1   --> A_1  D_1  S_1  
     e( 18 - 18) =     36.65435  eV     1   --> B_1  D_3  S_3  
     e( 19 - 19) =     46.09162  eV     1   --> B_1  D_3  S_3  
     e( 20 - 20) =     46.25074  eV     1   --> A_1  D_1  S_1  

 **************************************************************************

 **************************************************************************

                    xk=(   0.00000,   0.36084,   0.00000  )

     Band symmetry, C_2v (mm2)  point group:

     e(  1 -  1) =    -37.34093  eV     1   --> A_1  D_1  S_1  
     e(  2 -  2) =    -11.97539  eV     1   --> A_1  D_1  S_1  
     e(  3 -  3) =    -11.60005  eV     1   --> B_2  D_4  S_4  
     e(  4 -  4) =    -11.32791  eV     1   --> B_1  D_3  S_3  
     e(  5 -  5) =     10.17298  eV     1   --> A_1  D_1  S_1  
     e(  6 -  6) =     15.51016  eV     1   --> A_1  D_1  S_1  
     e(  7 -  7) =     17.95228  eV     1   --> B_2  D_4  S_4  
     e(  8 -  8) =     18.64083  eV     1   --> A_1  D_1  S_1  
     e(  9 -  9) =     19.21189  eV     1   --> B_1  D_3  S_3  
     e( 10 - 10) =     23.94637  eV     1   --> A_2  D_2  S_2  
     e( 11 - 11) =     25.15763  eV     1   --> A_1  D_1  S_1  
     e( 12 - 12) =     25.71505  eV     1   --> B_1  D_3  S_3  
     e( 13 - 13) =     27.02004  eV     1   --> B_2  D_4  S_4  
     e( 14 - 14) =     32.28234  eV     1   --> B_2  D_4  S_4  
     e( 15 - 15) =     32.46401  eV     1   --> A_1  D_1  S_1  
     e( 16 - 16) =     35.60891  eV     1   --> A_1  D_1  S_1  
     e( 17 - 17) =     36.78450  eV     1   --> A_1  D_1  S_1  
     e( 18 - 18) =     37.04888  eV     1   --> B_1  D_3  S_3  
     e( 19 - 19) =     45.67107  eV     1   --> B_1  D_3  S_3  
     e( 20 - 20) =     46.05514  eV     1   --> A_1  D_1  S_1  

 **************************************************************************

 **************************************************************************

                    xk=(   0.00000,   0.37528,   0.00000  )

     Band symmetry, C_2v (mm2)  point group:

     e(  1 -  1) =    -37.33487  eV     1   --> A_1  D_1  S_1  
     e(  2 -  2) =    -12.01654  eV     1   --> A_1  D_1  S_1  
     e(  3 -  3) =    -11.59220  eV     1   --> B_2  D_4  S_4  
     e(  4 -  4) =    -11.33769  eV     1   --> B_1  D_3  S_3  
     e(  5 -  5) =     10.31255  eV     1   --> A_1  D_1  S_1  
     e(  6 -  6) =     15.35327  eV     1   --> A_1  D_1  S_1  
     e(  7 -  7) =     17.86572  eV     1   --> B_2  D_4  S_4  
     e(  8 -  8) =     18.58721  eV     1   --> A_1  D_1  S_1  
     e(  9 -  9) =     19.22598  eV     1   --> B_1  D_3  S_3  
     e( 10 - 10) =     23.90884  eV     1   --> A_2  D_2  S_2  
     e( 11 - 11) =     25.28456  eV     1   --> A_1  D_1  S_1  
     e( 12 - 12) =     25.75791  eV     1   --> B_1  D_3  S_3  
     e( 13 - 13) =     26.96041  eV     1   --> B_2  D_4  S_4  
     e( 14 - 14) =     32.47000  eV     1   --> A_1  D_1  S_1  
     e( 15 - 15) =     32.47427  eV     1   --> B_2  D_4  S_4  
     e( 16 - 16) =     35.49544  eV     1   --> A_1  D_1  S_1  
     e( 17 - 17) =     37.13566  eV     1   --> A_1  D_1  S_1  
     e( 18 - 18) =     37.44442  eV     1   --> B_1  D_3  S_3  
     e( 19 - 19) =     45.26880  eV     1   --> B_1  D_3  S_3  
     e( 20 - 20) =     45.85843  eV     1   --> A_1  D_1  S_1  

 **************************************************************************

 **************************************************************************

                    xk=(   0.00000,   0.38971,   0.00000  )

     Band symmetry, C_2v (mm2)  point group:

     e(  1 -  1) =    -37.32904  eV     1   --> A_1  D_1  S_1  
     e(  2 -  2) =    -12.05589  eV     1   --> A_1  D_1  S_1  
     e(  3 -  3) =    -11.58465  eV     1   --> B_2  D_4  S_4  
     e(  4 -  4) =    -11.34705  eV     1   --> B_1  D_3  S_3  
     e(  5 -  5) =     10.45350  eV     1   --> A_1  D_1  S_1  
     e(  6 -  6) =     15.19745  eV     1   --> A_1  D_1  S_1  
     e(  7 -  7) =     17.78458  eV     1   --> B_2  D_4  S_4  
     e(  8 -  8) =     18.52878  eV     1   --> A_1  D_1  S_1  
     e(  9 -  9) =     19.23625  eV     1   --> B_1  D_3  S_3  
     e( 10 - 10) =     23.87310  eV     1   --> A_2  D_2  S_2  
     e( 11 - 11) =     25.43024  eV     1   --> A_1  D_1  S_1  
     e( 12 - 12) =     25.80709  eV     1   --> B_1  D_3  S_3  
     e( 13 - 13) =     26.89436  eV     1   --> B_2  D_4  S_4  
     e( 14 - 14) =     32.46000  eV     1   --> A_1  D_1  S_1  
     e( 15 - 15) =     32.67635  eV     1   --> B_2  D_4  S_4  
     e( 16 - 16) =     35.36527  eV     1   --> A_1  D_1  S_1  
     e( 17 - 17) =     37.49624  eV     1   --> A_1  D_1  S_1  
     e( 18 - 18) =     37.83978  eV     1   --> B_1  D_3  S_3  
     e( 19 - 19) =     44.88507  eV     1   --> B_1  D_3  S_3  
     e( 20 - 20) =     45.66166  eV     1   --> A_1  D_1  S_1  

 **************************************************************************

 **************************************************************************

                    xk=(   0.00000,   0.40415,   0.00000  )

     Band symmetry, C_2v (mm2)  point group:

     e(  1 -  1) =    -37.32349  eV     1   --> A_1  D_1  S_1  
     e(  2 -  2) =    -12.09323  eV     1   --> A_1  D_1  S_1  
     e(  3 -  3) =    -11.57745  eV     1   --> B_2  D_4  S_4  
     e(  4 -  4) =    -11.35597  eV     1   --> B_1  D_3  S_3  
     e(  5 -  5) =     10.59535  eV     1   --> A_1  D_1  S_1  
     e(  6 -  6) =     15.04313  eV     1   --> A_1  D_1  S_1  
     e(  7 -  7) =     17.70902  eV     1   --> B_2  D_4  S_4  
     e(  8 -  8) =     18.46723  eV     1   --> A_1  D_1  S_1  
     e(  9 -  9) =     19.24403  eV     1   --> B_1  D_3  S_3  
     e( 10 - 10) =     23.83931  eV     1   --> A_2  D_2  S_2  
     e( 11 - 11) =     25.59229  eV     1   --> A_1  D_1  S_1  
     e( 12 - 12) =     25.86160  eV     1   --> B_1  D_3  S_3  
     e( 13 - 13) =     26.82549  eV     1   --> B_2  D_4  S_4  
     e( 14 - 14) =     32.43331  eV     1   --> A_1  D_1  S_1  
     e( 15 - 15) =     32.88485  eV     1   --> B_2  D_4  S_4  
     e( 16 - 16) =     35.22858  eV     1   --> A_1  D_1  S_1  
     e( 17 - 17) =     37.85885  eV     1   --> A_1  D_1  S_1  
     e( 18 - 18) =     38.23368  eV     1   --> B_1  D_3  S_3  
     e( 19 - 19) =     44.52158  eV     1   --> B_1  D_3  S_3  
     e( 20 - 20) =     45.46533  eV     1   --> A_1  D_1  S_1  

 **************************************************************************

 **************************************************************************

                    xk=(   0.00000,   0.41858,   0.00000  )

     Band symmetry, C_2v (mm2)  point group:

     e(  1 -  1) =    -37.31824  eV     1   --> A_1  D_1  S_1  
     e(  2 -  2) =    -12.12835  eV     1   --> A_1  D_1  S_1  
     e(  3 -  3) =    -11.57063  eV     1   --> B_2  D_4  S_4  
     e(  4 -  4) =    -11.36437  eV     1   --> B_1  D_3  S_3  
     e(  5 -  5) =     10.73664  eV     1   --> A_1  D_1  S_1  
     e(  6 -  6) =     14.89072  eV     1   --> A_1  D_1  S_1  
     e(  7 -  7) =     17.63913  eV     1   --> B_2  D_4  S_4  
     e(  8 -  8) =     18.40422  eV     1   --> A_1  D_1  S_1  
     e(  9 -  9) =     19.24943  eV     1   --> B_1  D_3  S_3  
     e( 10 - 10) =     23.80765  eV     1   --> A_2  D_2  S_2  
     e( 11 - 11) =     25.76802  eV     1   --> A_1  D_1  S_1  
     e( 12 - 12) =     25.91969  eV     1   --> B_1  D_3  S_3  
     e( 13 - 13) =     26.75611  eV     1   --> B_2  D_4  S_4  
     e( 14 - 14) =     32.38870  eV     1   --> A_1  D_1  S_1  
     e( 15 - 15) =     33.09592  eV     1   --> B_2  D_4  S_4  
     e( 16 - 16) =     35.09345  eV     1   --> A_1  D_1  S_1  
     e( 17 - 17) =     38.21964  eV     1   --> A_1  D_1  S_1  
     e( 18 - 18) =     38.62229  eV     1   --> B_1  D_3  S_3  
     e( 19 - 19) =     44.17929  eV     1   --> B_1  D_3  S_3  
     e( 20 - 20) =     45.26911  eV     1   --> A_1  D_1  S_1  

 **************************************************************************

 **************************************************************************

                    xk=(   0.00000,   0.43301,   0.00000  )

     Band symmetry, C_2v (mm2)  point group:

     e(  1 -  1) =    -37.31332  eV     1   --> A_1  D_1  S_1  
     e(  2 -  2) =    -12.16106  eV     1   --> A_1  D_1  S_1  
     e(  3 -  3) =    -11.56425  eV     1   --> B_2  D_4  S_4  
     e(  4 -  4) =    -11.37222  eV     1   --> B_1  D_3  S_3  
     e(  5 -  5) =     10.87832  eV     1   --> A_1  D_1  S_1  
     e(  6 -  6) =     14.74056  eV     1   --> A_1  D_1  S_1  
     e(  7 -  7) =     17.57503  eV     1   --> B_2  D_4  S_4  
     e(  8 -  8) =     18.34136  eV     1   --> A_1  D_1  S_1  
     e(  9 -  9) =     19.25313  eV     1   --> B_1  D_3  S_3  
     e( 10 - 10) =     23.77825  eV     1   --> A_2  D_2  S_2  
     e( 11 - 11) =     25.95463  eV     1   --> A_1  D_1  S_1  
     e( 12 - 12) =     25.98038  eV     1   --> B_1  D_3  S_3  
     e( 13 - 13) =     26.68803  eV     1   --> B_2  D_4  S_4  
     e( 14 - 14) =     32.32510  eV     1   --> A_1  D_1  S_1  
     e( 15 - 15) =     33.30595  eV     1   --> B_2  D_4  S_4  
     e( 16 - 16) =     34.96168  eV     1   --> A_1  D_1  S_1  
     e( 17 - 17) =     38.57596  eV     1   --> A_1  D_1  S_1  
     e( 18 - 18) =     39.00773  eV     1   --> B_1  D_3  S_3  
     e( 19 - 19) =     43.86003  eV     1   --> B_1  D_3  S_3  
     e( 20 - 20) =     45.07390  eV     1   --> A_1  D_1  S_1  

 **************************************************************************

 **************************************************************************

                    xk=(   0.00000,   0.44745,   0.00000  )

     Band symmetry, C_2v (mm2)  point group:

     e(  1 -  1) =    -37.30877  eV     1   --> A_1  D_1  S_1  
     e(  2 -  2) =    -12.19120  eV     1   --> A_1  D_1  S_1  
     e(  3 -  3) =    -11.55835  eV     1   --> B_2  D_4  S_4  
     e(  4 -  4) =    -11.37946  eV     1   --> B_1  D_3  S_3  
     e(  5 -  5) =     11.01867  eV     1   --> A_1  D_1  S_1  
     e(  6 -  6) =     14.59338  eV     1   --> A_1  D_1  S_1  
     e(  7 -  7) =     17.51679  eV     1   --> B_2  D_4  S_4  
     e(  8 -  8) =     18.28011  eV     1   --> A_1  D_1  S_1  
     e(  9 -  9) =     19.25528  eV     1   --> B_1  D_3  S_3  
     e( 10 - 10) =     23.75124  eV     1   --> A_2  D_2  S_2  
     e( 11 - 11) =     26.04178  eV     1   --> B_1  D_3  S_3  
     e( 12 - 12) =     26.14890  eV     1   --> A_1  D_1  S_1  
     e( 13 - 13) =     26.62284  eV     1   --> B_2  D_4  S_4  
     e( 14 - 14) =     32.24259  eV     1   --> A_1  D_1  S_1  
     e( 15 - 15) =     33.51133  eV     1   --> B_2  D_4  S_4  
     e( 16 - 16) =     34.83920  eV     1   --> A_1  D_1  S_1  
     e( 17 - 17) =     38.92534  eV     1   --> A_1  D_1  S_1  
     e( 18 - 18) =     39.38557  eV     1   --> B_1  D_3  S_3  
     e( 19 - 19) =     43.56467  eV     1   --> B_1  D_3  S_3  
     e( 20 - 20) =     44.87901  eV     1   --> A_1  D_1  S_1  

 **************************************************************************

 **************************************************************************

                    xk=(   0.00000,   0.46188,   0.00000  )

     Band symmetry, C_2v (mm2)  point group:

     e(  1 -  1) =    -37.30462  eV     1   --> A_1  D_1  S_1  
     e(  2 -  2) =    -12.21859  eV     1   --> A_1  D_1  S_1  
     e(  3 -  3) =    -11.55296  eV     1   --> B_2  D_4  S_4  
     e(  4 -  4) =    -11.38606  eV     1   --> B_1  D_3  S_3  
     e(  5 -  5) =     11.15654  eV     1   --> A_1  D_1  S_1  
     e(  6 -  6) =     14.45009  eV     1   --> A_1  D_1  S_1  
     e(  7 -  7) =     17.46449  eV     1   --> B_2  D_4  S_4  
     e(  8 -  8) =     18.22182  eV     1   --> A_1  D_1  S_1  
     e(  9 -  9) =     19.25620  eV     1   --> B_1  D_3  S_3  
     e( 10 - 10) =     23.72676  eV     1   --> A_2  D_2  S_2  
     e( 11 - 11) =     26.10227  eV     1   --> B_1  D_3  S_3  
     e( 12 - 12) =     26.34727  eV     1   --> A_1  D_1  S_1  
     e( 13 - 13) =     26.56179  eV     1   --> B_2  D_4  S_4  
     e( 14 - 14) =     32.14234  eV     1   --> A_1  D_1  S_1  
     e( 15 - 15) =     33.70851  eV     1   --> B_2  D_4  S_4  
     e( 16 - 16) =     34.72922  eV     1   --> A_1  D_1  S_1  
     e( 17 - 17) =     39.26528  eV     1   --> A_1  D_1  S_1  
     e( 18 - 18) =     39.75275  eV     1   --> B_1  D_3  S_3  
     e( 19 - 19) =     43.29433  eV     1   --> B_1  D_3  S_3  
     e( 20 - 20) =     44.68455  eV     1   --> A_1  D_1  S_1  

 **************************************************************************

 **************************************************************************

                    xk=(   0.00000,   0.47631,   0.00000  )

     Band symmetry, C_2v (mm2)  point group:

     e(  1 -  1) =    -37.30089  eV     1   --> A_1  D_1  S_1  
     e(  2 -  2) =    -12.24310  eV     1   --> A_1  D_1  S_1  
     e(  3 -  3) =    -11.54811  eV     1   --> B_2  D_4  S_4  
     e(  4 -  4) =    -11.39197  eV     1   --> B_1  D_3  S_3  
     e(  5 -  5) =     11.29060  eV     1   --> A_1  D_1  S_1  
     e(  6 -  6) =     14.31226  eV     1   --> A_1  D_1  S_1  
     e(  7 -  7) =     17.41824  eV     1   --> B_2  D_4  S_4  
     e(  8 -  8) =     18.16770  eV     1   --> A_1  D_1  S_1  
     e(  9 -  9) =     19.25624  eV     1   --> B_1  D_3  S_3  
     e( 10 - 10) =     23.70491  eV     1   --> A_2  D_2  S_2  
     e( 11 - 11) =     26.16026  eV     1   --> B_1  D_3  S_3  
     e( 12 - 12) =     26.50726  eV     1   --> B_2  D_4  S_4  
     e( 13 - 13) =     26.54586  eV     1   --> A_1  D_1  S_1  
     e( 14 - 14) =     32.02714  eV     1   --> A_1  D_1  S_1  
     e( 15 - 15) =     33.89403  eV     1   --> B_2  D_4  S_4  
     e( 16 - 16) =     34.63485  eV     1   --> A_1  D_1  S_1  
     e( 17 - 17) =     39.59306  eV     1   --> A_1  D_1  S_1  
     e( 18 - 18) =     40.10553  eV     1   --> B_1  D_3  S_3  
     e( 19 - 19) =     43.05001  eV     1   --> B_1  D_3  S_3  
     e( 20 - 20) =     44.49324  eV     1   --> A_1  D_1  S_1  

 **************************************************************************

 **************************************************************************

                    xk=(   0.00000,   0.49075,   0.00000  )

     Band symmetry, C_2v (mm2)  point group:

     e(  1 -  1) =    -37.29760  eV     1   --> A_1  D_1  S_1  
     e(  2 -  2) =    -12.26461  eV     1   --> A_1  D_1  S_1  
     e(  3 -  3) =    -11.54385  eV     1   --> B_2  D_4  S_4  
     e(  4 -  4) =    -11.39716  eV     1   --> B_1  D_3  S_3  
     e(  5 -  5) =     11.41873  eV     1   --> A_1  D_1  S_1  
     e(  6 -  6) =     14.18087  eV     1   --> A_1  D_1  S_1  
     e(  7 -  7) =     17.37801  eV     1   --> B_2  D_4  S_4  
     e(  8 -  8) =     18.11875  eV     1   --> A_1  D_1  S_1  
     e(  9 -  9) =     19.25560  eV     1   --> B_1  D_3  S_3  
     e( 10 - 10) =     23.68578  eV     1   --> A_2  D_2  S_2  
     e( 11 - 11) =     26.21421  eV     1   --> B_1  D_3  S_3  
     e( 12 - 12) =     26.45737  eV     1   --> B_2  D_4  S_4  
     e( 13 - 13) =     26.73943  eV     1   --> A_1  D_1  S_1  
     e( 14 - 14) =     31.90164  eV     1   --> A_1  D_1  S_1  
     e( 15 - 15) =     34.06421  eV     1   --> B_2  D_4  S_4  
     e( 16 - 16) =     34.55461  eV     1   --> A_1  D_1  S_1  
     e( 17 - 17) =     39.90477  eV     1   --> A_1  D_1  S_1  
     e( 18 - 18) =     40.43922  eV     1   --> B_1  D_3  S_3  
     e( 19 - 19) =     42.83228  eV     1   --> B_1  D_3  S_3  
     e( 20 - 20) =     44.30258  eV     1   --> A_1  D_1  S_1  

 **************************************************************************

 **************************************************************************

                    xk=(   0.00000,   0.50518,   0.00000  )

     Band symmetry, C_2v (mm2)  point group:

     e(  1 -  1) =    -37.29478  eV     1   --> A_1  D_1  S_1  
     e(  2 -  2) =    -12.28299  eV     1   --> A_1  D_1  S_1  
     e(  3 -  3) =    -11.54020  eV     1   --> B_2  D_4  S_4  
     e(  4 -  4) =    -11.40161  eV     1   --> B_1  D_3  S_3  
     e(  5 -  5) =     11.53859  eV     1   --> A_1  D_1  S_1  
     e(  6 -  6) =     14.05901  eV     1   --> A_1  D_1  S_1  
     e(  7 -  7) =     17.34390  eV     1   --> B_2  D_4  S_4  
     e(  8 -  8) =     18.07589  eV     1   --> A_1  D_1  S_1  
     e(  9 -  9) =     19.25481  eV     1   --> B_1  D_3  S_3  
     e( 10 - 10) =     23.66946  eV     1   --> A_2  D_2  S_2  
     e( 11 - 11) =     26.26268  eV     1   --> B_1  D_3  S_3  
     e( 12 - 12) =     26.41415  eV     1   --> B_2  D_4  S_4  
     e( 13 - 13) =     26.92270  eV     1   --> A_1  D_1  S_1  
     e( 14 - 14) =     31.77227  eV     1   --> A_1  D_1  S_1  
     e( 15 - 15) =     34.21569  eV     1   --> B_2  D_4  S_4  
     e( 16 - 16) =     34.49002  eV     1   --> A_1  D_1  S_1  
     e( 17 - 17) =     40.19634  eV     1   --> A_1  D_1  S_1  
     e( 18 - 18) =     40.75137  eV     1   --> B_1  D_3  S_3  
     e( 19 - 19) =     42.64195  eV     1   --> B_1  D_3  S_3  
     e( 20 - 20) =     44.11992  eV     1   --> A_1  D_1  S_1  

 **************************************************************************

 **************************************************************************

                    xk=(   0.00000,   0.51962,   0.00000  )

     Band symmetry, C_2v (mm2)  point group:

     e(  1 -  1) =    -37.29246  eV     1   --> A_1  D_1  S_1  
     e(  2 -  2) =    -12.29816  eV     1   --> A_1  D_1  S_1  
     e(  3 -  3) =    -11.53717  eV     1   --> B_2  D_4  S_4  
     e(  4 -  4) =    -11.40528  eV     1   --> B_1  D_3  S_3  
     e(  5 -  5) =     11.64677  eV     1   --> A_1  D_1  S_1  
     e(  6 -  6) =     13.94903  eV     1   --> A_1  D_1  S_1  
     e(  7 -  7) =     17.31593  eV     1   --> B_2  D_4  S_4  
     e(  8 -  8) =     18.03984  eV     1   --> A_1  D_1  S_1  
     e(  9 -  9) =     19.25366  eV     1   --> B_1  D_3  S_3  
     e( 10 - 10) =     23.65601  eV     1   --> A_2  D_2  S_2  
     e( 11 - 11) =     26.30431  eV     1   --> B_1  D_3  S_3  
     e( 12 - 12) =     26.37813  eV     1   --> B_2  D_4  S_4  
     e( 13 - 13) =     27.08887  eV     1   --> A_1  D_1  S_1  
     e( 14 - 14) =     31.64701  eV     1   --> A_1  D_1  S_1  
     e( 15 - 15) =     34.34514  eV     1   --> B_2  D_4  S_4  
     e( 16 - 16) =     34.43904  eV     1   --> A_1  D_1  S_1  
     e( 17 - 17) =     40.46033  eV     1   --> A_1  D_1  S_1  
     e( 18 - 18) =     41.02953  eV     1   --> B_1  D_3  S_3  
     e( 19 - 19) =     42.47792  eV     1   --> B_1  D_3  S_3  
     e( 20 - 20) =     43.94478  eV     1   --> A_1  D_1  S_1  

 **************************************************************************

 **************************************************************************

                    xk=(   0.00000,   0.53405,   0.00000  )

     Band symmetry, C_2v (mm2)  point group:

     e(  1 -  1) =    -37.29063  eV     1   --> A_1  D_1  S_1  
     e(  2 -  2) =    -12.31004  eV     1   --> A_1  D_1  S_1  
     e(  3 -  3) =    -11.53480  eV     1   --> B_2  D_4  S_4  
     e(  4 -  4) =    -11.40816  eV     1   --> B_1  D_3  S_3  
     e(  5 -  5) =     11.73916  eV     1   --> A_1  D_1  S_1  
     e(  6 -  6) =     13.85538  eV     1   --> A_1  D_1  S_1  
     e(  7 -  7) =     17.29416  eV     1   --> B_2  D_4  S_4  
     e(  8 -  8) =     18.01120  eV     1   --> A_1  D_1  S_1  
     e(  9 -  9) =     19.25257  eV     1   --> B_1  D_3  S_3  
     e( 10 - 10) =     23.64550  eV     1   --> A_2  D_2  S_2  
     e( 11 - 11) =     26.33797  eV     1   --> B_1  D_3  S_3  
     e( 12 - 12) =     26.34973  eV     1   --> B_2  D_4  S_4  
     e( 13 - 13) =     27.23055  eV     1   --> A_1  D_1  S_1  
     e( 14 - 14) =     31.53500  eV     1   --> A_1  D_1  S_1  
     e( 15 - 15) =     34.40109  eV     1   --> A_1  D_1  S_1  
     e( 16 - 16) =     34.44950  eV     1   --> B_2  D_4  S_4  
     e( 17 - 17) =     40.68829  eV     1   --> A_1  D_1  S_1  
     e( 18 - 18) =     41.26962  eV     1   --> B_1  D_3  S_3  
     e( 19 - 19) =     42.33984  eV     1   --> B_1  D_3  S_3  
     e( 20 - 20) =     43.78736  eV     1   --> A_1  D_1  S_1  

 **************************************************************************

 **************************************************************************

                    xk=(   0.00000,   0.54848,   0.00000  )

     Band symmetry, C_2v (mm2)  point group:

     e(  1 -  1) =    -37.28933  eV     1   --> A_1  D_1  S_1  
     e(  2 -  2) =    -12.31858  eV     1   --> A_1  D_1  S_1  
     e(  3 -  3) =    -11.53310  eV     1   --> B_2  D_4  S_4  
     e(  4 -  4) =    -11.41023  eV     1   --> B_1  D_3  S_3  
     e(  5 -  5) =     11.81048  eV     1   --> A_1  D_1  S_1  
     e(  6 -  6) =     13.78236  eV     1   --> A_1  D_1  S_1  
     e(  7 -  7) =     17.27809  eV     1   --> B_2  D_4  S_4  
     e(  8 -  8) =     17.99036  eV     1   --> A_1  D_1  S_1  
     e(  9 -  9) =     19.25162  eV     1   --> B_1  D_3  S_3  
     e( 10 - 10) =     23.63795  eV     1   --> A_2  D_2  S_2  
     e( 11 - 11) =     26.32880  eV     1   --> B_2  D_4  S_4  
     e( 12 - 12) =     26.36271  eV     1   --> B_1  D_3  S_3  
     e( 13 - 13) =     27.33953  eV     1   --> A_1  D_1  S_1  
     e( 14 - 14) =     31.44489  eV     1   --> A_1  D_1  S_1  
     e( 15 - 15) =     34.37485  eV     1   --> A_1  D_1  S_1  
     e( 16 - 16) =     34.52355  eV     1   --> B_2  D_4  S_4  
     e( 17 - 17) =     40.86570  eV     1   --> A_1  D_1  S_1  
     e( 18 - 18) =     41.46211  eV     1   --> B_1  D_3  S_3  
     e( 19 - 19) =     42.22715  eV     1   --> B_1  D_3  S_3  
     e( 20 - 20) =     43.65733  eV     1   --> A_1  D_1  S_1  

 **************************************************************************

 **************************************************************************

                    xk=(   0.00000,   0.56292,   0.00000  )

     Band symmetry, C_2v (mm2)  point group:

     e(  1 -  1) =    -37.28853  eV     1   --> A_1  D_1  S_1  
     e(  2 -  2) =    -12.32371  eV     1   --> A_1  D_1  S_1  
     e(  3 -  3) =    -11.53207  eV     1   --> B_2  D_4  S_4  
     e(  4 -  4) =    -11.41147  eV     1   --> B_1  D_3  S_3  
     e(  5 -  5) =     11.85635  eV     1   --> A_1  D_1  S_1  
     e(  6 -  6) =     13.73652  eV     1   --> A_1  D_1  S_1  
     e(  7 -  7) =     17.26904  eV     1   --> B_2  D_4  S_4  
     e(  8 -  8) =     17.97778  eV     1   --> A_1  D_1  S_1  
     e(  9 -  9) =     19.25118  eV     1   --> B_1  D_3  S_3  
     e( 10 - 10) =     23.63341  eV     1   --> A_2  D_2  S_2  
     e( 11 - 11) =     26.31670  eV     1   --> B_2  D_4  S_4  
     e( 12 - 12) =     26.37785  eV     1   --> B_1  D_3  S_3  
     e( 13 - 13) =     27.40895  eV     1   --> A_1  D_1  S_1  
     e( 14 - 14) =     31.38718  eV     1   --> A_1  D_1  S_1  
     e( 15 - 15) =     34.35983  eV     1   --> A_1  D_1  S_1  
     e( 16 - 16) =     34.57190  eV     1   --> B_2  D_4  S_4  
     e( 17 - 17) =     40.98361  eV     1   --> A_1  D_1  S_1  
     e( 18 - 18) =     41.59796  eV     1   --> B_1  D_3  S_3  
     e( 19 - 19) =     42.14496  eV     1   --> B_1  D_3  S_3  
     e( 20 - 20) =     43.57157  eV     1   --> A_1  D_1  S_1  

 **************************************************************************

 **************************************************************************

                    xk=(   0.00000,   0.57735,   0.00000  )

     point group D_2h (mmm) 
     there are  8 classes
     the character table:

       E     C2    C2'   C2''  i     s_v   s_v'  s_v''
A_g    1.00  1.00  1.00  1.00  1.00  1.00  1.00  1.00
B_1g   1.00  1.00 -1.00 -1.00  1.00  1.00 -1.00 -1.00
B_2g   1.00 -1.00  1.00 -1.00  1.00 -1.00  1.00 -1.00
B_3g   1.00 -1.00 -1.00  1.00  1.00 -1.00 -1.00  1.00
A_u    1.00  1.00  1.00  1.00 -1.00 -1.00 -1.00 -1.00
B_1u   1.00  1.00 -1.00 -1.00 -1.00 -1.00  1.00  1.00
B_2u   1.00 -1.00  1.00 -1.00 -1.00  1.00 -1.00  1.00
B_3u   1.00 -1.00 -1.00  1.00 -1.00  1.00  1.00 -1.00

     the symmetry operations in each class and the name of the first element:

     E        1
                                                                 
     C2       2
                                                                 
     C2'      4
                                                                 
     C2''     3
                                                                 
     i        5
                                                                 
     s_v      6
                                                                 
     s_v'     8
                                                                 
     s_v''    7
                                                                 

     Band symmetry, D_2h (mmm)  point group:

     e(  1 -  1) =    -37.28827  eV     1   --> A_g            
     e(  2 -  2) =    -12.32542  eV     1   --> B_3u           
     e(  3 -  3) =    -11.53173  eV     1   --> B_1u           
     e(  4 -  4) =    -11.41189  eV     1   --> B_2u           
     e(  5 -  5) =     11.87214  eV     1   --> A_g            
     e(  6 -  6) =     13.72056  eV     1   --> B_3u           
     e(  7 -  7) =     17.26592  eV     1   --> B_2g           
     e(  8 -  8) =     17.97356  eV     1   --> A_g            
     e(  9 -  9) =     19.25098  eV     1   --> B_2u           
     e( 10 - 10) =     23.63190  eV     1   --> B_3g           
     e( 11 - 11) =     26.31255  eV     1   --> B_1u           
     e( 12 - 12) =     26.38294  eV     1   --> B_1g           
     e( 13 - 13) =     27.43269  eV     1   --> A_g            
     e( 14 - 14) =     31.36717  eV     1   --> B_3u           
     e( 15 - 15) =     34.35480  eV     1   --> A_g            
     e( 16 - 16) =     34.58767  eV     1   --> B_2g           
     e( 17 - 17) =     41.02444  eV     1   --> A_g            
     e( 18 - 18) =     41.64957  eV     1   --> B_1g           
     e( 19 - 19) =     42.11165  eV     1   --> B_2u           
     e( 20 - 20) =     43.54116  eV     1   --> B_3u           

 **************************************************************************

 **************************************************************************

                    xk=(   0.01667,   0.57735,   0.00000  )

     point group C_2v (mm2) 
     there are  4 classes
     the character table:

       E     C2    s_v   s_v' 
A_1    1.00  1.00  1.00  1.00
A_2    1.00  1.00 -1.00 -1.00
B_1    1.00 -1.00  1.00 -1.00
B_2    1.00 -1.00 -1.00  1.00

     the symmetry operations in each class and the name of the first element:

     E        1
                                                                 
     C2       2
                                                                 
     s_v      4
                                                                 
     s_v'     3
                                                                 

     Band symmetry, C_2v (mm2)  point group:

     e(  1 -  1) =    -37.28814  eV     1   --> A_1  D_1  S_1  
     e(  2 -  2) =    -12.32442  eV     1   --> B_2  D_4  S_4  
     e(  3 -  3) =    -11.53158  eV     1   --> B_1  D_3  S_3  
     e(  4 -  4) =    -11.41410  eV     1   --> A_1  D_1  S_1  
     e(  5 -  5) =     11.87846  eV     1   --> A_1  D_1  S_1  
     e(  6 -  6) =     13.72187  eV     1   --> B_2  D_4  S_4  
     e(  7 -  7) =     17.27072  eV     1   --> A_2  D_2  S_2  
     e(  8 -  8) =     17.94050  eV     1   --> A_1  D_1  S_1  
     e(  9 -  9) =     19.28434  eV     1   --> A_1  D_1  S_1  
     e( 10 - 10) =     23.57763  eV     1   --> B_1  D_3  S_3  
     e( 11 - 11) =     26.36256  eV     1   --> B_2  D_4  S_4  
     e( 12 - 12) =     26.37526  eV     1   --> B_1  D_3  S_3  
     e( 13 - 13) =     27.42296  eV     1   --> A_1  D_1  S_1  
     e( 14 - 14) =     31.39576  eV     1   --> B_2  D_4  S_4  
     e( 15 - 15) =     34.37064  eV     1   --> A_1  D_1  S_1  
     e( 16 - 16) =     34.58414  eV     1   --> A_2  D_2  S_2  
     e( 17 - 17) =     40.98676  eV     1   --> A_1  D_1  S_1  
     e( 18 - 18) =     41.64266  eV     1   --> B_2  D_4  S_4  
     e( 19 - 19) =     42.14421  eV     1   --> A_1  D_1  S_1  
     e( 20 - 20) =     43.54989  eV     1   --> B_2  D_4  S_4  

 **************************************************************************

 **************************************************************************

                    xk=(   0.03333,   0.57735,   0.00000  )

     Band symmetry, C_2v (mm2)  point group:

     e(  1 -  1) =    -37.28780  eV     1   --> A_1  D_1  S_1  
     e(  2 -  2) =    -12.32142  eV     1   --> B_2  D_4  S_4  
     e(  3 -  3) =    -11.53113  eV     1   --> B_1  D_3  S_3  
     e(  4 -  4) =    -11.42069  eV     1   --> A_1  D_1  S_1  
     e(  5 -  5) =     11.89716  eV     1   --> A_1  D_1  S_1  
     e(  6 -  6) =     13.72444  eV     1   --> B_2  D_4  S_4  
     e(  7 -  7) =     17.28356  eV     1   --> A_2  D_2  S_2  
     e(  8 -  8) =     17.84961  eV     1   --> A_1  D_1  S_1  
     e(  9 -  9) =     19.37672  eV     1   --> A_1  D_1  S_1  
     e( 10 - 10) =     23.42810  eV     1   --> B_1  D_3  S_3  
     e( 11 - 11) =     26.30282  eV     1   --> B_2  D_4  S_4  
     e( 12 - 12) =     26.54865  eV     1   --> B_1  D_3  S_3  
     e( 13 - 13) =     27.39362  eV     1   --> A_1  D_1  S_1  
     e( 14 - 14) =     31.47982  eV     1   --> B_2  D_4  S_4  
     e( 15 - 15) =     34.41758  eV     1   --> A_1  D_1  S_1  
     e( 16 - 16) =     34.56595  eV     1   --> A_2  D_2  S_2  
     e( 17 - 17) =     40.88400  eV     1   --> A_1  D_1  S_1  
     e( 18 - 18) =     41.61513  eV     1   --> B_2  D_4  S_4  
     e( 19 - 19) =     42.22917  eV     1   --> A_1  D_1  S_1  
     e( 20 - 20) =     43.57444  eV     1   --> B_2  D_4  S_4  

 **************************************************************************

 **************************************************************************

                    xk=(   0.05000,   0.57735,   0.00000  )

     Band symmetry, C_2v (mm2)  point group:

     e(  1 -  1) =    -37.28723  eV     1   --> A_1  D_1  S_1  
     e(  2 -  2) =    -12.31644  eV     1   --> B_2  D_4  S_4  
     e(  3 -  3) =    -11.53040  eV     1   --> B_1  D_3  S_3  
     e(  4 -  4) =    -11.43158  eV     1   --> A_1  D_1  S_1  
     e(  5 -  5) =     11.92842  eV     1   --> A_1  D_1  S_1  
     e(  6 -  6) =     13.72967  eV     1   --> B_2  D_4  S_4  
     e(  7 -  7) =     17.30548  eV     1   --> A_2  D_2  S_2  
     e(  8 -  8) =     17.71724  eV     1   --> A_1  D_1  S_1  
     e(  9 -  9) =     19.51085  eV     1   --> A_1  D_1  S_1  
     e( 10 - 10) =     23.21161  eV     1   --> B_1  D_3  S_3  
     e( 11 - 11) =     26.20798  eV     1   --> B_2  D_4  S_4  
     e( 12 - 12) =     26.80501  eV     1   --> B_1  D_3  S_3  
     e( 13 - 13) =     27.34539  eV     1   --> A_1  D_1  S_1  
     e( 14 - 14) =     31.61555  eV     1   --> B_2  D_4  S_4  
     e( 15 - 15) =     34.49565  eV     1   --> A_1  D_1  S_1  
     e( 16 - 16) =     34.53810  eV     1   --> A_2  D_2  S_2  
     e( 17 - 17) =     40.74159  eV     1   --> A_1  D_1  S_1  
     e( 18 - 18) =     41.57717  eV     1   --> B_2  D_4  S_4  
     e( 19 - 19) =     42.34205  eV     1   --> A_1  D_1  S_1  
     e( 20 - 20) =     43.61433  eV     1   --> B_2  D_4  S_4  

 **************************************************************************

 **************************************************************************

                    xk=(   0.06667,   0.57735,   0.00000  )

     Band symmetry, C_2v (mm2)  point group:

     e(  1 -  1) =    -37.28645  eV     1   --> A_1  D_1  S_1  
     e(  2 -  2) =    -12.30949  eV     1   --> B_2  D_4  S_4  
     e(  3 -  3) =    -11.52940  eV     1   --> B_1  D_3  S_3  
     e(  4 -  4) =    -11.44662  eV     1   --> A_1  D_1  S_1  
     e(  5 -  5) =     11.97193  eV     1   --> A_1  D_1  S_1  
     e(  6 -  6) =     13.73703  eV     1   --> B_2  D_4  S_4  
     e(  7 -  7) =     17.33615  eV     1   --> A_2  D_2  S_2  
     e(  8 -  8) =     17.55775  eV     1   --> A_1  D_1  S_1  
     e(  9 -  9) =     19.67340  eV     1   --> A_1  D_1  S_1  
     e( 10 - 10) =     22.95447  eV     1   --> B_1  D_3  S_3  
     e( 11 - 11) =     26.08374  eV     1   --> B_2  D_4  S_4  
     e( 12 - 12) =     27.11757  eV     1   --> B_1  D_3  S_3  
     e( 13 - 13) =     27.27847  eV     1   --> A_1  D_1  S_1  
     e( 14 - 14) =     31.79687  eV     1   --> B_2  D_4  S_4  
     e( 15 - 15) =     34.49939  eV     1   --> A_2  D_2  S_2  
     e( 16 - 16) =     34.60423  eV     1   --> A_1  D_1  S_1  
     e( 17 - 17) =     40.57616  eV     1   --> A_1  D_1  S_1  
     e( 18 - 18) =     41.52636  eV     1   --> B_2  D_4  S_4  
     e( 19 - 19) =     42.46290  eV     1   --> A_1  D_1  S_1  
     e( 20 - 20) =     43.66763  eV     1   --> B_2  D_4  S_4  

 **************************************************************************

 **************************************************************************

                    xk=(   0.08333,   0.57735,   0.00000  )

     Band symmetry, C_2v (mm2)  point group:

     e(  1 -  1) =    -37.28547  eV     1   --> A_1  D_1  S_1  
     e(  2 -  2) =    -12.30060  eV     1   --> B_2  D_4  S_4  
     e(  3 -  3) =    -11.52814  eV     1   --> B_1  D_3  S_3  
     e(  4 -  4) =    -11.46559  eV     1   --> A_1  D_1  S_1  
     e(  5 -  5) =     12.02741  eV     1   --> A_1  D_1  S_1  
     e(  6 -  6) =     13.74652  eV     1   --> B_2  D_4  S_4  
     e(  7 -  7) =     17.37555  eV     1   --> A_2  D_2  S_2  
     e(  8 -  8) =     17.38032  eV     1   --> A_1  D_1  S_1  
     e(  9 -  9) =     19.85580  eV     1   --> A_1  D_1  S_1  
     e( 10 - 10) =     22.67503  eV     1   --> B_1  D_3  S_3  
     e( 11 - 11) =     25.93642  eV     1   --> B_2  D_4  S_4  
     e( 12 - 12) =     27.19345  eV     1   --> A_1  D_1  S_1  
     e( 13 - 13) =     27.46752  eV     1   --> B_1  D_3  S_3  
     e( 14 - 14) =     32.01729  eV     1   --> B_2  D_4  S_4  
     e( 15 - 15) =     34.45010  eV     1   --> A_2  D_2  S_2  
     e( 16 - 16) =     34.74255  eV     1   --> A_1  D_1  S_1  
     e( 17 - 17) =     40.39823  eV     1   --> A_1  D_1  S_1  
     e( 18 - 18) =     41.46454  eV     1   --> B_2  D_4  S_4  
     e( 19 - 19) =     42.57802  eV     1   --> A_1  D_1  S_1  
     e( 20 - 20) =     43.73229  eV     1   --> B_2  D_4  S_4  

 **************************************************************************

 **************************************************************************

                    xk=(   0.10000,   0.57735,   0.00000  )

     Band symmetry, C_2v (mm2)  point group:

     e(  1 -  1) =    -37.28431  eV     1   --> A_1  D_1  S_1  
     e(  2 -  2) =    -12.28981  eV     1   --> B_2  D_4  S_4  
     e(  3 -  3) =    -11.52666  eV     1   --> B_1  D_3  S_3  
     e(  4 -  4) =    -11.48826  eV     1   --> A_1  D_1  S_1  
     e(  5 -  5) =     12.09442  eV     1   --> A_1  D_1  S_1  
     e(  6 -  6) =     13.75817  eV     1   --> B_2  D_4  S_4  
     e(  7 -  7) =     17.19022  eV     1   --> A_1  D_1  S_1  
     e(  8 -  8) =     17.42366  eV     1   --> A_2  D_2  S_2  
     e(  9 -  9) =     20.05256  eV     1   --> A_1  D_1  S_1  
     e( 10 - 10) =     22.38465  eV     1   --> B_1  D_3  S_3  
     e( 11 - 11) =     25.77210  eV     1   --> B_2  D_4  S_4  
     e( 12 - 12) =     27.09103  eV     1   --> A_1  D_1  S_1  
     e( 13 - 13) =     27.84160  eV     1   --> B_1  D_3  S_3  
     e( 14 - 14) =     32.27033  eV     1   --> B_2  D_4  S_4  
     e( 15 - 15) =     34.39055  eV     1   --> A_2  D_2  S_2  
     e( 16 - 16) =     34.90789  eV     1   --> A_1  D_1  S_1  
     e( 17 - 17) =     40.21364  eV     1   --> A_1  D_1  S_1  
     e( 18 - 18) =     41.39346  eV     1   --> B_2  D_4  S_4  
     e( 19 - 19) =     42.67720  eV     1   --> A_1  D_1  S_1  
     e( 20 - 20) =     43.80513  eV     1   --> B_2  D_4  S_4  

 **************************************************************************

 **************************************************************************

                    xk=(   0.11667,   0.57735,   0.00000  )

     Band symmetry, C_2v (mm2)  point group:

     e(  1 -  1) =    -37.28300  eV     1   --> A_1  D_1  S_1  
     e(  2 -  2) =    -12.27715  eV     1   --> B_2  D_4  S_4  
     e(  3 -  3) =    -11.52497  eV     1   --> B_1  D_3  S_3  
     e(  4 -  4) =    -11.51432  eV     1   --> A_1  D_1  S_1  
     e(  5 -  5) =     12.17265  eV     1   --> A_1  D_1  S_1  
     e(  6 -  6) =     13.77138  eV     1   --> B_2  D_4  S_4  
     e(  7 -  7) =     16.99089  eV     1   --> A_1  D_1  S_1  
     e(  8 -  8) =     17.48041  eV     1   --> A_2  D_2  S_2  
     e(  9 -  9) =     20.26300  eV     1   --> A_1  D_1  S_1  
     e( 10 - 10) =     22.09106  eV     1   --> B_1  D_3  S_3  
[...]
     e(  9 -  9) =     20.41469  eV     1   --> B_1  D_3  S_3  
     e( 10 - 10) =     22.60832  eV     1   --> A_1  D_1  S_1  
     e( 11 - 11) =     24.50130  eV     1   --> A_1  D_1  S_1  
     e( 12 - 12) =     24.59495  eV     1   --> A_2  D_2  S_2  
     e( 13 - 13) =     25.04102  eV     1   --> B_2  D_4  S_4  
     e( 14 - 14) =     31.22737  eV     1   --> B_1  D_3  S_3  
     e( 15 - 15) =     35.35901  eV     1   --> B_2  D_4  S_4  
     e( 16 - 16) =     35.81272  eV     1   --> A_2  D_2  S_2  
     e( 17 - 17) =     37.96456  eV     1   --> A_2  D_2  S_2  
     e( 18 - 18) =     39.26343  eV     1   --> B_2  D_4  S_4  
     e( 19 - 19) =     41.65009  eV     1   --> A_1  D_1  S_1  
     e( 20 - 20) =     44.78293  eV     1   --> A_1  D_1  S_1  

 **************************************************************************

 **************************************************************************

                    xk=(   0.08333,   0.14434,   0.46677  )

     Band symmetry, C_2v (mm2)  point group:

     e(  1 -  1) =    -37.38159  eV     1   --> A_1  D_1  S_1  
     e(  2 -  2) =    -12.27691  eV     1   --> B_2  D_4  S_4  
     e(  3 -  3) =    -11.31376  eV     1   --> A_1  D_1  S_1  
     e(  4 -  4) =    -11.14036  eV     1   --> B_1  D_3  S_3  
     e(  5 -  5) =     11.29482  eV     1   --> B_2  D_4  S_4  
     e(  6 -  6) =     14.71007  eV     1   --> A_1  D_1  S_1  
     e(  7 -  7) =     18.74494  eV     1   --> A_2  D_2  S_2  
     e(  8 -  8) =     19.10135  eV     1   --> B_2  D_4  S_4  
     e(  9 -  9) =     20.59299  eV     1   --> B_1  D_3  S_3  
     e( 10 - 10) =     22.46350  eV     1   --> A_1  D_1  S_1  
     e( 11 - 11) =     24.34726  eV     1   --> A_2  D_2  S_2  
     e( 12 - 12) =     24.44236  eV     1   --> A_1  D_1  S_1  
     e( 13 - 13) =     24.72447  eV     1   --> B_2  D_4  S_4  
     e( 14 - 14) =     30.94858  eV     1   --> B_1  D_3  S_3  
     e( 15 - 15) =     35.49655  eV     1   --> B_2  D_4  S_4  
     e( 16 - 16) =     35.79526  eV     1   --> A_2  D_2  S_2  
     e( 17 - 17) =     37.82855  eV     1   --> A_2  D_2  S_2  
     e( 18 - 18) =     38.99237  eV     1   --> B_2  D_4  S_4  
     e( 19 - 19) =     41.93935  eV     1   --> A_1  D_1  S_1  
     e( 20 - 20) =     45.16637  eV     1   --> A_1  D_1  S_1  

 **************************************************************************

 **************************************************************************

                    xk=(   0.07500,   0.12990,   0.46677  )

     Band symmetry, C_2v (mm2)  point group:

     e(  1 -  1) =    -37.38727  eV     1   --> A_1  D_1  S_1  
     e(  2 -  2) =    -12.28648  eV     1   --> B_2  D_4  S_4  
     e(  3 -  3) =    -11.27397  eV     1   --> A_1  D_1  S_1  
     e(  4 -  4) =    -11.12986  eV     1   --> B_1  D_3  S_3  
     e(  5 -  5) =     11.30398  eV     1   --> B_2  D_4  S_4  
     e(  6 -  6) =     14.57224  eV     1   --> A_1  D_1  S_1  
     e(  7 -  7) =     19.02484  eV     1   --> A_2  D_2  S_2  
     e(  8 -  8) =     19.30899  eV     1   --> B_2  D_4  S_4  
     e(  9 -  9) =     20.76968  eV     1   --> B_1  D_3  S_3  
     e( 10 - 10) =     22.33172  eV     1   --> A_1  D_1  S_1  
     e( 11 - 11) =     24.09551  eV     1   --> A_2  D_2  S_2  
     e( 12 - 12) =     24.38864  eV     1   --> A_1  D_1  S_1  
     e( 13 - 13) =     24.40851  eV     1   --> B_2  D_4  S_4  
     e( 14 - 14) =     30.67327  eV     1   --> B_1  D_3  S_3  
     e( 15 - 15) =     35.62932  eV     1   --> B_2  D_4  S_4  
     e( 16 - 16) =     35.76307  eV     1   --> A_2  D_2  S_2  
     e( 17 - 17) =     37.72207  eV     1   --> A_2  D_2  S_2  
     e( 18 - 18) =     38.74089  eV     1   --> B_2  D_4  S_4  
     e( 19 - 19) =     42.19974  eV     1   --> A_1  D_1  S_1  
     e( 20 - 20) =     45.55914  eV     1   --> A_1  D_1  S_1  

 **************************************************************************

 **************************************************************************

                    xk=(   0.06667,   0.11547,   0.46677  )

     Band symmetry, C_2v (mm2)  point group:

     e(  1 -  1) =    -37.39249  eV     1   --> A_1  D_1  S_1  
     e(  2 -  2) =    -12.29523  eV     1   --> B_2  D_4  S_4  
     e(  3 -  3) =    -11.23700  eV     1   --> A_1  D_1  S_1  
     e(  4 -  4) =    -11.12049  eV     1   --> B_1  D_3  S_3  
     e(  5 -  5) =     11.31289  eV     1   --> B_2  D_4  S_4  
     e(  6 -  6) =     14.44645  eV     1   --> A_1  D_1  S_1  
     e(  7 -  7) =     19.30615  eV     1   --> A_2  D_2  S_2  
     e(  8 -  8) =     19.52588  eV     1   --> B_2  D_4  S_4  
     e(  9 -  9) =     20.94225  eV     1   --> B_1  D_3  S_3  
     e( 10 - 10) =     22.21327  eV     1   --> A_1  D_1  S_1  
     e( 11 - 11) =     23.83997  eV     1   --> A_2  D_2  S_2  
     e( 12 - 12) =     24.09280  eV     1   --> B_2  D_4  S_4  
     e( 13 - 13) =     24.34035  eV     1   --> A_1  D_1  S_1  
     e( 14 - 14) =     30.40782  eV     1   --> B_1  D_3  S_3  
     e( 15 - 15) =     35.72028  eV     1   --> A_2  D_2  S_2  
     e( 16 - 16) =     35.75659  eV     1   --> B_2  D_4  S_4  
     e( 17 - 17) =     37.64318  eV     1   --> A_2  D_2  S_2  
     e( 18 - 18) =     38.50964  eV     1   --> B_2  D_4  S_4  
     e( 19 - 19) =     42.43454  eV     1   --> A_1  D_1  S_1  
     e( 20 - 20) =     45.95068  eV     1   --> B_1  D_3  S_3  

 **************************************************************************

 **************************************************************************

                    xk=(   0.05833,   0.10104,   0.46677  )

     Band symmetry, C_2v (mm2)  point group:

     e(  1 -  1) =    -37.39719  eV     1   --> A_1  D_1  S_1  
     e(  2 -  2) =    -12.30312  eV     1   --> B_2  D_4  S_4  
     e(  3 -  3) =    -11.20328  eV     1   --> A_1  D_1  S_1  
     e(  4 -  4) =    -11.11225  eV     1   --> B_1  D_3  S_3  
     e(  5 -  5) =     11.32070  eV     1   --> B_2  D_4  S_4  
     e(  6 -  6) =     14.33339  eV     1   --> A_1  D_1  S_1  
     e(  7 -  7) =     19.58864  eV     1   --> A_2  D_2  S_2  
     e(  8 -  8) =     19.75260  eV     1   --> B_2  D_4  S_4  
     e(  9 -  9) =     21.10761  eV     1   --> B_1  D_3  S_3  
     e( 10 - 10) =     22.10839  eV     1   --> A_1  D_1  S_1  
     e( 11 - 11) =     23.58088  eV     1   --> A_2  D_2  S_2  
     e( 12 - 12) =     23.77989  eV     1   --> B_2  D_4  S_4  
     e( 13 - 13) =     24.29738  eV     1   --> A_1  D_1  S_1  
     e( 14 - 14) =     30.15469  eV     1   --> B_1  D_3  S_3  
     e( 15 - 15) =     35.66750  eV     1   --> A_2  D_2  S_2  
     e( 16 - 16) =     35.87761  eV     1   --> B_2  D_4  S_4  
     e( 17 - 17) =     37.58679  eV     1   --> A_2  D_2  S_2  
     e( 18 - 18) =     38.29830  eV     1   --> B_2  D_4  S_4  
     e( 19 - 19) =     42.63889  eV     1   --> A_1  D_1  S_1  
     e( 20 - 20) =     46.32478  eV     1   --> B_1  D_3  S_3  

 **************************************************************************

 **************************************************************************

                    xk=(   0.05000,   0.08660,   0.46677  )

     Band symmetry, C_2v (mm2)  point group:

     e(  1 -  1) =    -37.40133  eV     1   --> A_1  D_1  S_1  
     e(  2 -  2) =    -12.31008  eV     1   --> B_2  D_4  S_4  
     e(  3 -  3) =    -11.17318  eV     1   --> A_1  D_1  S_1  
     e(  4 -  4) =    -11.10512  eV     1   --> B_1  D_3  S_3  
     e(  5 -  5) =     11.32785  eV     1   --> B_2  D_4  S_4  
     e(  6 -  6) =     14.23389  eV     1   --> A_1  D_1  S_1  
     e(  7 -  7) =     19.87191  eV     1   --> A_2  D_2  S_2  
     e(  8 -  8) =     19.98797  eV     1   --> B_2  D_4  S_4  
     e(  9 -  9) =     21.26250  eV     1   --> B_1  D_3  S_3  
     e( 10 - 10) =     22.01724  eV     1   --> A_1  D_1  S_1  
     e( 11 - 11) =     23.31930  eV     1   --> A_2  D_2  S_2  
     e( 12 - 12) =     23.46969  eV     1   --> B_2  D_4  S_4  
     e( 13 - 13) =     24.25993  eV     1   --> A_1  D_1  S_1  
     e( 14 - 14) =     29.92048  eV     1   --> B_1  D_3  S_3  
     e( 15 - 15) =     35.61312  eV     1   --> A_2  D_2  S_2  
     e( 16 - 16) =     35.99151  eV     1   --> B_2  D_4  S_4  
     e( 17 - 17) =     37.54889  eV     1   --> A_2  D_2  S_2  
     e( 18 - 18) =     38.10846  eV     1   --> B_2  D_4  S_4  
     e( 19 - 19) =     42.81578  eV     1   --> A_1  D_1  S_1  
     e( 20 - 20) =     46.71208  eV     1   --> B_1  D_3  S_3  

 **************************************************************************

 **************************************************************************

                    xk=(   0.04167,   0.07217,   0.46677  )

     Band symmetry, C_2v (mm2)  point group:

     e(  1 -  1) =    -37.40491  eV     1   --> A_1  D_1  S_1  
     e(  2 -  2) =    -12.31607  eV     1   --> B_2  D_4  S_4  
     e(  3 -  3) =    -11.14708  eV     1   --> A_1  D_1  S_1  
     e(  4 -  4) =    -11.09911  eV     1   --> B_1  D_3  S_3  
     e(  5 -  5) =     11.33375  eV     1   --> B_2  D_4  S_4  
     e(  6 -  6) =     14.14849  eV     1   --> A_1  D_1  S_1  
     e(  7 -  7) =     20.15390  eV     1   --> A_2  D_2  S_2  
     e(  8 -  8) =     20.23067  eV     1   --> B_2  D_4  S_4  
     e(  9 -  9) =     21.40325  eV     1   --> B_1  D_3  S_3  
     e( 10 - 10) =     21.93994  eV     1   --> A_1  D_1  S_1  
     e( 11 - 11) =     23.05401  eV     1   --> A_2  D_2  S_2  
     e( 12 - 12) =     23.16225  eV     1   --> B_2  D_4  S_4  
     e( 13 - 13) =     24.22809  eV     1   --> A_1  D_1  S_1  
     e( 14 - 14) =     29.71014  eV     1   --> B_1  D_3  S_3  
     e( 15 - 15) =     35.55695  eV     1   --> A_2  D_2  S_2  
     e( 16 - 16) =     36.09688  eV     1   --> B_2  D_4  S_4  
     e( 17 - 17) =     37.52416  eV     1   --> A_2  D_2  S_2  
     e( 18 - 18) =     37.93838  eV     1   --> B_2  D_4  S_4  
     e( 19 - 19) =     42.96528  eV     1   --> A_1  D_1  S_1  
     e( 20 - 20) =     47.10818  eV     1   --> B_1  D_3  S_3  

 **************************************************************************

 **************************************************************************

                    xk=(   0.03333,   0.05774,   0.46677  )

     Band symmetry, C_2v (mm2)  point group:

     e(  1 -  1) =    -37.40786  eV     1   --> A_1  D_1  S_1  
     e(  2 -  2) =    -12.32102  eV     1   --> B_2  D_4  S_4  
     e(  3 -  3) =    -11.12528  eV     1   --> A_1  D_1  S_1  
     e(  4 -  4) =    -11.09421  eV     1   --> B_1  D_3  S_3  
     e(  5 -  5) =     11.33882  eV     1   --> B_2  D_4  S_4  
     e(  6 -  6) =     14.07783  eV     1   --> A_1  D_1  S_1  
     e(  7 -  7) =     20.43450  eV     1   --> A_2  D_2  S_2  
     e(  8 -  8) =     20.48003  eV     1   --> B_2  D_4  S_4  
     e(  9 -  9) =     21.52597  eV     1   --> B_1  D_3  S_3  
     e( 10 - 10) =     21.87659  eV     1   --> A_1  D_1  S_1  
     e( 11 - 11) =     22.78928  eV     1   --> A_2  D_2  S_2  
     e( 12 - 12) =     22.86134  eV     1   --> B_2  D_4  S_4  
     e( 13 - 13) =     24.20194  eV     1   --> A_1  D_1  S_1  
     e( 14 - 14) =     29.52973  eV     1   --> B_1  D_3  S_3  
     e( 15 - 15) =     35.50715  eV     1   --> A_2  D_2  S_2  
     e( 16 - 16) =     36.19251  eV     1   --> B_2  D_4  S_4  
     e( 17 - 17) =     37.51000  eV     1   --> A_2  D_2  S_2  
     e( 18 - 18) =     37.79174  eV     1   --> B_2  D_4  S_4  
     e( 19 - 19) =     43.08831  eV     1   --> A_1  D_1  S_1  
     e( 20 - 20) =     47.50730  eV     1   --> B_1  D_3  S_3  

 **************************************************************************

 **************************************************************************

                    xk=(   0.02500,   0.04330,   0.46677  )

     Band symmetry, C_2v (mm2)  point group:

     e(  1 -  1) =    -37.41019  eV     1   --> A_1  D_1  S_1  
     e(  2 -  2) =    -12.32492  eV     1   --> B_2  D_4  S_4  
     e(  3 -  3) =    -11.10804  eV     1   --> A_1  D_1  S_1  
     e(  4 -  4) =    -11.09040  eV     1   --> B_1  D_3  S_3  
     e(  5 -  5) =     11.34285  eV     1   --> B_2  D_4  S_4  
     e(  6 -  6) =     14.02238  eV     1   --> A_1  D_1  S_1  
     e(  7 -  7) =     20.70898  eV     1   --> A_2  D_2  S_2  
     e(  8 -  8) =     20.73217  eV     1   --> B_2  D_4  S_4  
     e(  9 -  9) =     21.62666  eV     1   --> B_1  D_3  S_3  
     e( 10 - 10) =     21.82725  eV     1   --> A_1  D_1  S_1  
     e( 11 - 11) =     22.52433  eV     1   --> A_2  D_2  S_2  
     e( 12 - 12) =     22.56851  eV     1   --> B_2  D_4  S_4  
     e( 13 - 13) =     24.18158  eV     1   --> A_1  D_1  S_1  
     e( 14 - 14) =     29.38253  eV     1   --> B_1  D_3  S_3  
     e( 15 - 15) =     35.46399  eV     1   --> A_2  D_2  S_2  
     e( 16 - 16) =     36.27491  eV     1   --> B_2  D_4  S_4  
     e( 17 - 17) =     37.50212  eV     1   --> A_2  D_2  S_2  
     e( 18 - 18) =     37.66948  eV     1   --> B_2  D_4  S_4  
     e( 19 - 19) =     43.18470  eV     1   --> A_1  D_1  S_1  
     e( 20 - 20) =     47.89943  eV     1   --> B_1  D_3  S_3  

 **************************************************************************

 **************************************************************************

                    xk=(   0.01667,   0.02887,   0.46677  )

     Band symmetry, C_2v (mm2)  point group:

     e(  1 -  1) =    -37.41187  eV     1   --> A_1  D_1  S_1  
     e(  2 -  2) =    -12.32772  eV     1   --> B_2  D_4  S_4  
     e(  3 -  3) =    -11.09558  eV     1   --> A_1  D_1  S_1  
     e(  4 -  4) =    -11.08768  eV     1   --> B_1  D_3  S_3  
     e(  5 -  5) =     11.34568  eV     1   --> B_2  D_4  S_4  
     e(  6 -  6) =     13.98249  eV     1   --> A_1  D_1  S_1  
     e(  7 -  7) =     20.97233  eV     1   --> A_2  D_2  S_2  
     e(  8 -  8) =     20.98052  eV     1   --> B_2  D_4  S_4  
     e(  9 -  9) =     21.70170  eV     1   --> B_1  D_3  S_3  
     e( 10 - 10) =     21.79198  eV     1   --> A_1  D_1  S_1  
     e( 11 - 11) =     22.26928  eV     1   --> A_2  D_2  S_2  
     e( 12 - 12) =     22.29108  eV     1   --> B_2  D_4  S_4  
     e( 13 - 13) =     24.16696  eV     1   --> A_1  D_1  S_1  
     e( 14 - 14) =     29.27381  eV     1   --> B_1  D_3  S_3  
     e( 15 - 15) =     35.43171  eV     1   --> A_2  D_2  S_2  
     e( 16 - 16) =     36.34028  eV     1   --> B_2  D_4  S_4  
     e( 17 - 17) =     37.49822  eV     1   --> A_2  D_2  S_2  
     e( 18 - 18) =     37.57615  eV     1   --> B_2  D_4  S_4  
     e( 19 - 19) =     43.25280  eV     1   --> A_1  D_1  S_1  
     e( 20 - 20) =     48.26436  eV     1   --> B_1  D_3  S_3  

 **************************************************************************

 **************************************************************************

                    xk=(   0.00833,   0.01443,   0.46677  )

     Band symmetry, C_2v (mm2)  point group:

     e(  1 -  1) =    -37.41288  eV     1   --> A_1  D_1  S_1  
     e(  2 -  2) =    -12.32941  eV     1   --> B_2  D_4  S_4  
     e(  3 -  3) =    -11.08803  eV     1   --> A_1  D_1  S_1  
     e(  4 -  4) =    -11.08605  eV     1   --> B_1  D_3  S_3  
     e(  5 -  5) =     11.34739  eV     1   --> B_2  D_4  S_4  
     e(  6 -  6) =     13.95845  eV     1   --> A_1  D_1  S_1  
     e(  7 -  7) =     21.20195  eV     1   --> A_2  D_2  S_2  
     e(  8 -  8) =     21.20301  eV     1   --> B_2  D_4  S_4  
     e(  9 -  9) =     21.74806  eV     1   --> B_1  D_3  S_3  
     e( 10 - 10) =     21.77081  eV     1   --> A_1  D_1  S_1  
     e( 11 - 11) =     22.04468  eV     1   --> A_2  D_2  S_2  
     e( 12 - 12) =     22.05111  eV     1   --> B_2  D_4  S_4  
     e( 13 - 13) =     24.15818  eV     1   --> A_1  D_1  S_1  
     e( 14 - 14) =     29.20704  eV     1   --> B_1  D_3  S_3  
     e( 15 - 15) =     35.41170  eV     1   --> A_2  D_2  S_2  
     e( 16 - 16) =     36.38311  eV     1   --> B_2  D_4  S_4  
     e( 17 - 17) =     37.49653  eV     1   --> A_2  D_2  S_2  
     e( 18 - 18) =     37.51666  eV     1   --> B_2  D_4  S_4  
     e( 19 - 19) =     43.29367  eV     1   --> A_1  D_1  S_1  
     e( 20 - 20) =     48.55530  eV     1   --> B_1  D_3  S_3  

 **************************************************************************

 **************************************************************************

                    xk=(   0.00000,   0.00000,   0.46677  )

     point group D_6h(6/mmm)
     there are 12 classes
     the character table:

       E     2C6   2C3   C2    3C2'  3C2'' i     2S3   2S6   s_h   3s_d  3s_v 
A_1g   1.00  1.00  1.00  1.00  1.00  1.00  1.00  1.00  1.00  1.00  1.00  1.00
A_2g   1.00  1.00  1.00  1.00 -1.00 -1.00  1.00  1.00  1.00  1.00 -1.00 -1.00
B_1g   1.00 -1.00  1.00 -1.00  1.00 -1.00  1.00 -1.00  1.00 -1.00  1.00 -1.00
B_2g   1.00 -1.00  1.00 -1.00 -1.00  1.00  1.00 -1.00  1.00 -1.00 -1.00  1.00
E_1g   2.00  1.00 -1.00 -2.00  0.00  0.00  2.00  1.00 -1.00 -2.00  0.00  0.00
E_2g   2.00 -1.00 -1.00  2.00  0.00  0.00  2.00 -1.00 -1.00  2.00  0.00  0.00
A_1u   1.00  1.00  1.00  1.00  1.00  1.00 -1.00 -1.00 -1.00 -1.00 -1.00 -1.00
A_2u   1.00  1.00  1.00  1.00 -1.00 -1.00 -1.00 -1.00 -1.00 -1.00  1.00  1.00
B_1u   1.00 -1.00  1.00 -1.00  1.00 -1.00 -1.00  1.00 -1.00  1.00 -1.00  1.00
B_2u   1.00 -1.00  1.00 -1.00 -1.00  1.00 -1.00  1.00 -1.00  1.00  1.00 -1.00
E_1u   2.00  1.00 -1.00 -2.00  0.00  0.00 -2.00 -1.00  1.00  2.00  0.00  0.00
E_2u   2.00 -1.00 -1.00  2.00  0.00  0.00 -2.00  1.00  1.00 -2.00  0.00  0.00

     the symmetry operations in each class and the name of the first element:

     E        1
                                                                 
     2C6      5    6
                                                                 
     2C3      7    8
                                                                 
     C2       2
                                                                 
     3C2'     4   12   11
                                                                 
     3C2''    3    9   10
                                                                 
     i       13
                                                                 
     2S3     17   18
                                                                 
     2S6     19   20
                                                                 
     s_h     14
                                                                 
     3s_d    16   24   23
                                                                 
     3s_v    15   21   22
                                                                 

     Band symmetry, D_6h(6/mmm) point group:

     e(  1 -  1) =    -37.41322  eV     1   --> A_1g           
     e(  2 -  2) =    -12.32998  eV     1   --> A_2u           
     e(  3 -  4) =    -11.08551  eV     2   --> E_1u           
     e(  5 -  5) =     11.34796  eV     1   --> A_2u           
     e(  6 -  6) =     13.95042  eV     1   --> A_1g           
     e(  7 -  8) =     21.31367  eV     2   --> E_1g           
     e(  9 - 10) =     21.76375  eV     2   --> E_2g           
     e( 11 - 12) =     21.93463  eV     2   --> E_2u           
     e( 13 - 13) =     24.15525  eV     1   --> A_1g           
     e( 14 - 14) =     29.18452  eV     1   --> B_2u           
     e( 15 - 15) =     35.40493  eV     1   --> B_1g           
     e( 16 - 16) =     36.39815  eV     1   --> A_2u           
     e( 17 - 18) =     37.49608  eV     2   --> E_1g           
     e( 19 - 19) =     43.30730  eV     1   --> A_1g           
     e( 20 - 20) =     48.67643  eV     1   -->   ?

 **************************************************************************
 
     BANDS        :      5.90s CPU      6.39s WALL

 
   This run was terminated on:   4:41:27  28Apr2022            

=------------------------------------------------------------------------------=
   JOB DONE.
=------------------------------------------------------------------------------=
