
     Program BANDS v.7.0 starts on 28Apr2022 at 13: 9:58 

     This program is part of the open-source Quantum ESPRESSO suite
     for quantum simulation of materials; please cite
         "P. Giannozzi et al., J. Phys.:Condens. Matter 21 395502 (2009);
         "P. Giannozzi et al., J. Phys.:Condens. Matter 29 465901 (2017);
         "P. Giannozzi et al., J. Chem. Phys. 152 154105 (2020);
          URL http://www.quantum-espresso.org", 
     in publications or presentations arising from this work. More details at
     http://www.quantum-espresso.org/quote

     Parallel version (MPI), running on     8 processors

     MPI processes distributed on     1 nodes
     R & G space division:  proc/nbgrp/npool/nimage =       8
     2357 MiB available memory on the printing compute node when the environment starts
 

     Reading xml data from directory:

     ./tmp/mob2.save/

     IMPORTANT: XC functional enforced from input :
     Exchange-correlation= PBE
                           (   1   4   3   4   0   0   0)
     Any further DFT definition will be discarded
     Please, verify this is what you really want

 
     Parallelization info
     --------------------
     sticks:   dense  smooth     PW     G-vecs:    dense   smooth      PW
     Min          37      37     11                  559      559     106
     Max          38      38     13                  562      562     107
     Sum         301     301     97                 4487     4487     853
 
     Using Slab Decomposition
 
     Reading collected, re-writing distributed wavefunctions
     high-symmetry point:  0.0000 0.0000 0.0000   x coordinate   0.0000
     high-symmetry point:  0.0000 0.5774 0.0000   x coordinate   0.5774
     high-symmetry point:  0.3333 0.5774 0.0000   x coordinate   0.9107
     high-symmetry point:  0.0000 0.0000 0.0000   x coordinate   1.5774
     high-symmetry point:  0.0000 0.0000 0.4635   x coordinate   2.0409
     high-symmetry point:  0.0000 0.5774 0.4635   x coordinate   2.6182
     high-symmetry point:  0.3333 0.5774 0.4635   x coordinate   2.9516
     high-symmetry point:  0.0000 0.0000 0.4635   x coordinate   3.6182

     Plottable bands (eV) written to file mob2_bands.bands.gnu
     Bands written to file mob2_bands.bands

 **************************************************************************

                    xk=(   0.00000,   0.00000,   0.00000  )

     point group D_6h(6/mmm)
     there are 12 classes
     the character table:

       E     2C6   2C3   C2    3C2'  3C2'' i     2S3   2S6   s_h   3s_d  3s_v 
A_1g   1.00  1.00  1.00  1.00  1.00  1.00  1.00  1.00  1.00  1.00  1.00  1.00
A_2g   1.00  1.00  1.00  1.00 -1.00 -1.00  1.00  1.00  1.00  1.00 -1.00 -1.00
B_1g   1.00 -1.00  1.00 -1.00  1.00 -1.00  1.00 -1.00  1.00 -1.00  1.00 -1.00
B_2g   1.00 -1.00  1.00 -1.00 -1.00  1.00  1.00 -1.00  1.00 -1.00 -1.00  1.00
E_1g   2.00  1.00 -1.00 -2.00  0.00  0.00  2.00  1.00 -1.00 -2.00  0.00  0.00
E_2g   2.00 -1.00 -1.00  2.00  0.00  0.00  2.00 -1.00 -1.00  2.00  0.00  0.00
A_1u   1.00  1.00  1.00  1.00  1.00  1.00 -1.00 -1.00 -1.00 -1.00 -1.00 -1.00
A_2u   1.00  1.00  1.00  1.00 -1.00 -1.00 -1.00 -1.00 -1.00 -1.00  1.00  1.00
B_1u   1.00 -1.00  1.00 -1.00  1.00 -1.00 -1.00  1.00 -1.00  1.00 -1.00  1.00
B_2u   1.00 -1.00  1.00 -1.00 -1.00  1.00 -1.00  1.00 -1.00  1.00  1.00 -1.00
E_1u   2.00  1.00 -1.00 -2.00  0.00  0.00 -2.00 -1.00  1.00  2.00  0.00  0.00
E_2u   2.00 -1.00 -1.00  2.00  0.00  0.00 -2.00  1.00  1.00 -2.00  0.00  0.00

     the symmetry operations in each class and the name of the first element:

     E        1
                                                                 
     2C6      5    6
                                                                 
     2C3      7    8
                                                                 
     C2       2
                                                                 
     3C2'     4   12   11
                                                                 
     3C2''    3    9   10
                                                                 
     i       13
                                                                 
     2S3     17   18
                                                                 
     2S6     19   20
                                                                 
     s_h     14
                                                                 
     3s_d    16   24   23
                                                                 
     3s_v    15   21   22
                                                                 

     Band symmetry, D_6h(6/mmm) point group:

     e(  1 -  1) =    -39.11637  eV     1   --> A_1g           
     e(  2 -  2) =    -13.37301  eV     1   --> A_2u           
     e(  3 -  4) =    -12.85409  eV     2   --> E_1u           
     e(  5 -  5) =      6.92092  eV     1   --> A_1g           
     e(  6 -  6) =     16.94107  eV     1   --> A_1g           
     e(  7 -  8) =     17.29117  eV     2   --> E_2g           
     e(  9 -  9) =     18.94136  eV     1   --> A_2u           
     e( 10 - 11) =     22.99571  eV     2   --> E_1g           
     e( 12 - 13) =     25.63689  eV     2   --> E_2g           
     e( 14 - 15) =     27.64590  eV     2   --> E_1u           
     e( 16 - 16) =     28.56511  eV     1   --> B_2u           
     e( 17 - 17) =     31.66765  eV     1   --> B_1g           
     e( 18 - 18) =     33.36580  eV     1   --> A_1g           
     e( 19 - 20) =     40.23718  eV     2   --> E_2u           

 **************************************************************************

 **************************************************************************

                    xk=(   0.00000,   0.01443,   0.00000  )

     point group C_2v (mm2) 
     there are  4 classes
     the character table:

       E     C2    s_v   s_v' 
A_1    1.00  1.00  1.00  1.00
A_2    1.00  1.00 -1.00 -1.00
B_1    1.00 -1.00  1.00 -1.00
B_2    1.00 -1.00 -1.00  1.00

     the symmetry operations in each class and the name of the first element:

     E        1
                                                                 
     C2       2
                                                                 
     s_v      3
                                                                 
     s_v'     4
                                                                 

     Band symmetry, C_2v (mm2)  point group:

     e(  1 -  1) =    -39.11617  eV     1   --> A_1  D_1  S_1  
     e(  2 -  2) =    -13.37275  eV     1   --> B_2  D_4  S_4  
     e(  3 -  3) =    -12.85567  eV     1   --> A_1  D_1  S_1  
     e(  4 -  4) =    -12.85444  eV     1   --> B_1  D_3  S_3  
     e(  5 -  5) =      6.92458  eV     1   --> A_1  D_1  S_1  
     e(  6 -  6) =     16.94412  eV     1   --> A_1  D_1  S_1  
     e(  7 -  7) =     17.28309  eV     1   --> A_1  D_1  S_1  
     e(  8 -  8) =     17.29312  eV     1   --> B_1  D_3  S_3  
     e(  9 -  9) =     18.93169  eV     1   --> B_2  D_4  S_4  
     e( 10 - 10) =     22.99391  eV     1   --> A_2  D_2  S_2  
     e( 11 - 11) =     23.00846  eV     1   --> B_2  D_4  S_4  
     e( 12 - 12) =     25.60974  eV     1   --> A_1  D_1  S_1  
     e( 13 - 13) =     25.61362  eV     1   --> B_1  D_3  S_3  
     e( 14 - 14) =     27.67086  eV     1   --> A_1  D_1  S_1  
     e( 15 - 15) =     27.67779  eV     1   --> B_1  D_3  S_3  
     e( 16 - 16) =     28.57844  eV     1   --> A_1  D_1  S_1  
     e( 17 - 17) =     31.65199  eV     1   --> B_2  D_4  S_4  
     e( 18 - 18) =     33.36873  eV     1   --> A_1  D_1  S_1  
     e( 19 - 19) =     40.24459  eV     1   --> A_2  D_2  S_2  
     e( 20 - 20) =     40.26292  eV     1   --> B_2  D_4  S_4  

 **************************************************************************

 **************************************************************************

                    xk=(   0.00000,   0.02887,   0.00000  )

     Band symmetry, C_2v (mm2)  point group:

     e(  1 -  1) =    -39.11558  eV     1   --> A_1  D_1  S_1  
     e(  2 -  2) =    -13.37197  eV     1   --> B_2  D_4  S_4  
     e(  3 -  3) =    -12.86040  eV     1   --> A_1  D_1  S_1  
     e(  4 -  4) =    -12.85550  eV     1   --> B_1  D_3  S_3  
     e(  5 -  5) =      6.93554  eV     1   --> A_1  D_1  S_1  
     e(  6 -  6) =     16.95319  eV     1   --> A_1  D_1  S_1  
     e(  7 -  7) =     17.25897  eV     1   --> A_1  D_1  S_1  
     e(  8 -  8) =     17.29893  eV     1   --> B_1  D_3  S_3  
     e(  9 -  9) =     18.90310  eV     1   --> B_2  D_4  S_4  
     e( 10 - 10) =     22.98855  eV     1   --> A_2  D_2  S_2  
     e( 11 - 11) =     23.04624  eV     1   --> B_2  D_4  S_4  
     e( 12 - 12) =     25.53242  eV     1   --> A_1  D_1  S_1  
     e( 13 - 13) =     25.54803  eV     1   --> B_1  D_3  S_3  
     e( 14 - 14) =     27.74172  eV     1   --> A_1  D_1  S_1  
     e( 15 - 15) =     27.76926  eV     1   --> B_1  D_3  S_3  
     e( 16 - 16) =     28.61822  eV     1   --> A_1  D_1  S_1  
     e( 17 - 17) =     31.60572  eV     1   --> B_2  D_4  S_4  
     e( 18 - 18) =     33.37750  eV     1   --> A_1  D_1  S_1  
     e( 19 - 19) =     40.26678  eV     1   --> A_2  D_2  S_2  
     e( 20 - 20) =     40.33947  eV     1   --> B_2  D_4  S_4  

 **************************************************************************

 **************************************************************************

                    xk=(   0.00000,   0.04330,   0.00000  )

     Band symmetry, C_2v (mm2)  point group:

     e(  1 -  1) =    -39.11461  eV     1   --> A_1  D_1  S_1  
     e(  2 -  2) =    -13.37066  eV     1   --> B_2  D_4  S_4  
     e(  3 -  3) =    -12.86825  eV     1   --> A_1  D_1  S_1  
     e(  4 -  4) =    -12.85726  eV     1   --> B_1  D_3  S_3  
     e(  5 -  5) =      6.95377  eV     1   --> A_1  D_1  S_1  
     e(  6 -  6) =     16.96813  eV     1   --> A_1  D_1  S_1  
     e(  7 -  7) =     17.21925  eV     1   --> A_1  D_1  S_1  
     e(  8 -  8) =     17.30853  eV     1   --> B_1  D_3  S_3  
     e(  9 -  9) =     18.85676  eV     1   --> B_2  D_4  S_4  
     e( 10 - 10) =     22.97966  eV     1   --> A_2  D_2  S_2  
     e( 11 - 11) =     23.10775  eV     1   --> B_2  D_4  S_4  
     e( 12 - 12) =     25.41482  eV     1   --> A_1  D_1  S_1  
     e( 13 - 13) =     25.45011  eV     1   --> B_1  D_3  S_3  
     e( 14 - 14) =     27.84886  eV     1   --> A_1  D_1  S_1  
     e( 15 - 15) =     27.91036  eV     1   --> B_1  D_3  S_3  
     e( 16 - 16) =     28.68383  eV     1   --> A_1  D_1  S_1  
     e( 17 - 17) =     31.53081  eV     1   --> B_2  D_4  S_4  
     e( 18 - 18) =     33.39194  eV     1   --> A_1  D_1  S_1  
     e( 19 - 19) =     40.30369  eV     1   --> A_2  D_2  S_2  
     e( 20 - 20) =     40.46489  eV     1   --> B_2  D_4  S_4  

 **************************************************************************

 **************************************************************************

                    xk=(   0.00000,   0.05774,   0.00000  )

     Band symmetry, C_2v (mm2)  point group:

     e(  1 -  1) =    -39.11324  eV     1   --> A_1  D_1  S_1  
     e(  2 -  2) =    -13.36885  eV     1   --> B_2  D_4  S_4  
     e(  3 -  3) =    -12.87915  eV     1   --> A_1  D_1  S_1  
     e(  4 -  4) =    -12.85971  eV     1   --> B_1  D_3  S_3  
     e(  5 -  5) =      6.97921  eV     1   --> A_1  D_1  S_1  
     e(  6 -  6) =     16.98855  eV     1   --> A_1  D_1  S_1  
     e(  7 -  7) =     17.16469  eV     1   --> A_1  D_1  S_1  
     e(  8 -  8) =     17.32177  eV     1   --> B_1  D_3  S_3  
     e(  9 -  9) =     18.79442  eV     1   --> B_2  D_4  S_4  
     e( 10 - 10) =     22.96732  eV     1   --> A_2  D_2  S_2  
     e( 11 - 11) =     23.19100  eV     1   --> B_2  D_4  S_4  
     e( 12 - 12) =     25.26818  eV     1   --> A_1  D_1  S_1  
     e( 13 - 13) =     25.33089  eV     1   --> B_1  D_3  S_3  
     e( 14 - 14) =     27.98144  eV     1   --> A_1  D_1  S_1  
     e( 15 - 15) =     28.09008  eV     1   --> B_1  D_3  S_3  
     e( 16 - 16) =     28.77433  eV     1   --> A_1  D_1  S_1  
     e( 17 - 17) =     31.43030  eV     1   --> B_2  D_4  S_4  
     e( 18 - 18) =     33.41180  eV     1   --> A_1  D_1  S_1  
     e( 19 - 19) =     40.35520  eV     1   --> A_2  D_2  S_2  
     e( 20 - 20) =     40.63624  eV     1   --> B_2  D_4  S_4  

 **************************************************************************

 **************************************************************************

                    xk=(   0.00000,   0.07217,   0.00000  )

     Band symmetry, C_2v (mm2)  point group:

     e(  1 -  1) =    -39.11150  eV     1   --> A_1  D_1  S_1  
     e(  2 -  2) =    -13.36654  eV     1   --> B_2  D_4  S_4  
     e(  3 -  3) =    -12.89304  eV     1   --> A_1  D_1  S_1  
     e(  4 -  4) =    -12.86284  eV     1   --> B_1  D_3  S_3  
     e(  5 -  5) =      7.01179  eV     1   --> A_1  D_1  S_1  
     e(  6 -  6) =     17.01316  eV     1   --> A_1  D_1  S_1  
     e(  7 -  7) =     17.09707  eV     1   --> A_1  D_1  S_1  
     e(  8 -  8) =     17.33849  eV     1   --> B_1  D_3  S_3  
     e(  9 -  9) =     18.71821  eV     1   --> B_2  D_4  S_4  
     e( 10 - 10) =     22.95165  eV     1   --> A_2  D_2  S_2  
     e( 11 - 11) =     23.29354  eV     1   --> B_2  D_4  S_4  
     e( 12 - 12) =     25.10219  eV     1   --> A_1  D_1  S_1  
     e( 13 - 13) =     25.19955  eV     1   --> B_1  D_3  S_3  
     e( 14 - 14) =     28.13023  eV     1   --> A_1  D_1  S_1  
     e( 15 - 15) =     28.29934  eV     1   --> B_1  D_3  S_3  
     e( 16 - 16) =     28.88861  eV     1   --> A_1  D_1  S_1  
     e( 17 - 17) =     31.30798  eV     1   --> B_2  D_4  S_4  
     e( 18 - 18) =     33.43672  eV     1   --> A_1  D_1  S_1  
     e( 19 - 19) =     40.42118  eV     1   --> A_2  D_2  S_2  
     e( 20 - 20) =     40.84990  eV     1   --> B_2  D_4  S_4  

 **************************************************************************

 **************************************************************************

                    xk=(   0.00000,   0.08660,   0.00000  )

     Band symmetry, C_2v (mm2)  point group:

     e(  1 -  1) =    -39.10940  eV     1   --> A_1  D_1  S_1  
     e(  2 -  2) =    -13.36374  eV     1   --> B_2  D_4  S_4  
     e(  3 -  3) =    -12.90980  eV     1   --> A_1  D_1  S_1  
     e(  4 -  4) =    -12.86661  eV     1   --> B_1  D_3  S_3  
     e(  5 -  5) =      7.05128  eV     1   --> A_1  D_1  S_1  
     e(  6 -  6) =     17.00537  eV     1   --> A_1  D_1  S_1  
     e(  7 -  7) =     17.05351  eV     1   --> A_1  D_1  S_1  
     e(  8 -  8) =     17.35844  eV     1   --> B_1  D_3  S_3  
     e(  9 -  9) =     18.63036  eV     1   --> B_2  D_4  S_4  
     e( 10 - 10) =     22.93278  eV     1   --> A_2  D_2  S_2  
     e( 11 - 11) =     23.41267  eV     1   --> B_2  D_4  S_4  
     e( 12 - 12) =     24.92424  eV     1   --> A_1  D_1  S_1  
     e( 13 - 13) =     25.06283  eV     1   --> B_1  D_3  S_3  
     e( 14 - 14) =     28.28764  eV     1   --> A_1  D_1  S_1  
     e( 15 - 15) =     28.53144  eV     1   --> B_1  D_3  S_3  
     e( 16 - 16) =     29.02546  eV     1   --> A_1  D_1  S_1  
     e( 17 - 17) =     31.16802  eV     1   --> B_2  D_4  S_4  
     e( 18 - 18) =     33.46513  eV     1   --> A_1  D_1  S_1  
     e( 19 - 19) =     40.50141  eV     1   --> A_2  D_2  S_2  
     e( 20 - 20) =     41.10185  eV     1   --> B_2  D_4  S_4  

 **************************************************************************

 **************************************************************************

                    xk=(   0.00000,   0.10104,   0.00000  )

     Band symmetry, C_2v (mm2)  point group:

     e(  1 -  1) =    -39.10695  eV     1   --> A_1  D_1  S_1  
     e(  2 -  2) =    -13.36047  eV     1   --> B_2  D_4  S_4  
     e(  3 -  3) =    -12.92931  eV     1   --> A_1  D_1  S_1  
     e(  4 -  4) =    -12.87101  eV     1   --> B_1  D_3  S_3  
     e(  5 -  5) =      7.09783  eV     1   --> A_1  D_1  S_1  
     e(  6 -  6) =     16.91509  eV     1   --> A_1  D_1  S_1  
     e(  7 -  7) =     17.08485  eV     1   --> A_1  D_1  S_1  
     e(  8 -  8) =     17.38135  eV     1   --> B_1  D_3  S_3  
     e(  9 -  9) =     18.53323  eV     1   --> B_2  D_4  S_4  
     e( 10 - 10) =     22.91087  eV     1   --> A_2  D_2  S_2  
     e( 11 - 11) =     23.54559  eV     1   --> B_2  D_4  S_4  
     e( 12 - 12) =     24.74052  eV     1   --> A_1  D_1  S_1  
     e( 13 - 13) =     24.92546  eV     1   --> B_1  D_3  S_3  
     e( 14 - 14) =     28.44936  eV     1   --> A_1  D_1  S_1  
     e( 15 - 15) =     28.78182  eV     1   --> B_1  D_3  S_3  
     e( 16 - 16) =     29.18407  eV     1   --> A_1  D_1  S_1  
     e( 17 - 17) =     31.01616  eV     1   --> B_2  D_4  S_4  
     e( 18 - 18) =     33.49837  eV     1   --> A_1  D_1  S_1  
     e( 19 - 19) =     40.59568  eV     1   --> A_2  D_2  S_2  
     e( 20 - 20) =     41.38810  eV     1   --> B_2  D_4  S_4  

 **************************************************************************

 **************************************************************************

                    xk=(   0.00000,   0.11547,   0.00000  )

     Band symmetry, C_2v (mm2)  point group:

     e(  1 -  1) =    -39.10415  eV     1   --> A_1  D_1  S_1  
     e(  2 -  2) =    -13.35675  eV     1   --> B_2  D_4  S_4  
     e(  3 -  3) =    -12.95143  eV     1   --> A_1  D_1  S_1  
     e(  4 -  4) =    -12.87601  eV     1   --> B_1  D_3  S_3  
     e(  5 -  5) =      7.15104  eV     1   --> A_1  D_1  S_1  
     e(  6 -  6) =     16.81021  eV     1   --> A_1  D_1  S_1  
     e(  7 -  7) =     17.12380  eV     1   --> A_1  D_1  S_1  
     e(  8 -  8) =     17.40704  eV     1   --> B_1  D_3  S_3  
     e(  9 -  9) =     18.42864  eV     1   --> B_2  D_4  S_4  
     e( 10 - 10) =     22.88611  eV     1   --> A_2  D_2  S_2  
     e( 11 - 11) =     23.68951  eV     1   --> B_2  D_4  S_4  
     e( 12 - 12) =     24.55486  eV     1   --> A_1  D_1  S_1  
     e( 13 - 13) =     24.79086  eV     1   --> B_1  D_3  S_3  
     e( 14 - 14) =     28.61265  eV     1   --> A_1  D_1  S_1  
     e( 15 - 15) =     29.04674  eV     1   --> B_1  D_3  S_3  
     e( 16 - 16) =     29.36328  eV     1   --> A_1  D_1  S_1  
     e( 17 - 17) =     30.85387  eV     1   --> B_2  D_4  S_4  
     e( 18 - 18) =     33.53375  eV     1   --> A_1  D_1  S_1  
     e( 19 - 19) =     40.70374  eV     1   --> A_2  D_2  S_2  
     e( 20 - 20) =     41.70469  eV     1   --> B_2  D_4  S_4  

 **************************************************************************

 **************************************************************************

                    xk=(   0.00000,   0.12990,   0.00000  )

     Band symmetry, C_2v (mm2)  point group:

     e(  1 -  1) =    -39.10103  eV     1   --> A_1  D_1  S_1  
     e(  2 -  2) =    -13.35260  eV     1   --> B_2  D_4  S_4  
     e(  3 -  3) =    -12.97601  eV     1   --> A_1  D_1  S_1  
     e(  4 -  4) =    -12.88157  eV     1   --> B_1  D_3  S_3  
     e(  5 -  5) =      7.21102  eV     1   --> A_1  D_1  S_1  
     e(  6 -  6) =     16.69523  eV     1   --> A_1  D_1  S_1  
     e(  7 -  7) =     17.16627  eV     1   --> A_1  D_1  S_1  
     e(  8 -  8) =     17.43491  eV     1   --> B_1  D_3  S_3  
     e(  9 -  9) =     18.31856  eV     1   --> B_2  D_4  S_4  
     e( 10 - 10) =     22.85870  eV     1   --> A_2  D_2  S_2  
     e( 11 - 11) =     23.84164  eV     1   --> B_2  D_4  S_4  
     e( 12 - 12) =     24.37168  eV     1   --> A_1  D_1  S_1  
     e( 13 - 13) =     24.66125  eV     1   --> B_1  D_3  S_3  
     e( 14 - 14) =     28.77024  eV     1   --> A_1  D_1  S_1  
     e( 15 - 15) =     29.32571  eV     1   --> B_1  D_3  S_3  
     e( 16 - 16) =     29.56249  eV     1   --> A_1  D_1  S_1  
     e( 17 - 17) =     30.68674  eV     1   --> B_2  D_4  S_4  
     e( 18 - 18) =     33.57205  eV     1   --> A_1  D_1  S_1  
     e( 19 - 19) =     40.82533  eV     1   --> A_2  D_2  S_2  
     e( 20 - 20) =     42.04749  eV     1   --> B_2  D_4  S_4  

 **************************************************************************

 **************************************************************************

                    xk=(   0.00000,   0.14434,   0.00000  )

     Band symmetry, C_2v (mm2)  point group:

     e(  1 -  1) =    -39.09761  eV     1   --> A_1  D_1  S_1  
     e(  2 -  2) =    -13.34805  eV     1   --> B_2  D_4  S_4  
     e(  3 -  3) =    -13.00287  eV     1   --> A_1  D_1  S_1  
     e(  4 -  4) =    -12.88766  eV     1   --> B_1  D_3  S_3  
     e(  5 -  5) =      7.27745  eV     1   --> A_1  D_1  S_1  
     e(  6 -  6) =     16.57049  eV     1   --> A_1  D_1  S_1  
     e(  7 -  7) =     17.21110  eV     1   --> A_1  D_1  S_1  
     e(  8 -  8) =     17.46450  eV     1   --> B_1  D_3  S_3  
     e(  9 -  9) =     18.20458  eV     1   --> B_2  D_4  S_4  
     e( 10 - 10) =     22.82888  eV     1   --> A_2  D_2  S_2  
     e( 11 - 11) =     23.99925  eV     1   --> B_2  D_4  S_4  
     e( 12 - 12) =     24.19187  eV     1   --> A_1  D_1  S_1  
     e( 13 - 13) =     24.53829  eV     1   --> B_1  D_3  S_3  
     e( 14 - 14) =     28.92161  eV     1   --> A_1  D_1  S_1  
     e( 15 - 15) =     29.61509  eV     1   --> B_1  D_3  S_3  
     e( 16 - 16) =     29.78048  eV     1   --> A_1  D_1  S_1  
     e( 17 - 17) =     30.51856  eV     1   --> B_2  D_4  S_4  
     e( 18 - 18) =     33.61124  eV     1   --> A_1  D_1  S_1  
     e( 19 - 19) =     40.95991  eV     1   --> A_2  D_2  S_2  
     e( 20 - 20) =     42.41301  eV     1   --> B_2  D_4  S_4  

 **************************************************************************

 **************************************************************************

                    xk=(   0.00000,   0.15877,   0.00000  )

     Band symmetry, C_2v (mm2)  point group:

     e(  1 -  1) =    -39.09392  eV     1   --> A_1  D_1  S_1  
     e(  2 -  2) =    -13.34312  eV     1   --> B_2  D_4  S_4  
     e(  3 -  3) =    -13.03183  eV     1   --> A_1  D_1  S_1  
     e(  4 -  4) =    -12.89425  eV     1   --> B_1  D_3  S_3  
     e(  5 -  5) =      7.34946  eV     1   --> A_1  D_1  S_1  
     e(  6 -  6) =     16.43785  eV     1   --> A_1  D_1  S_1  
     e(  7 -  7) =     17.25721  eV     1   --> A_1  D_1  S_1  
     e(  8 -  8) =     17.49547  eV     1   --> B_1  D_3  S_3  
     e(  9 -  9) =     18.08812  eV     1   --> B_2  D_4  S_4  
     e( 10 - 10) =     22.79687  eV     1   --> A_2  D_2  S_2  
     e( 11 - 11) =     24.01892  eV     1   --> A_1  D_1  S_1  
     e( 12 - 12) =     24.15959  eV     1   --> B_2  D_4  S_4  
     e( 13 - 13) =     24.42338  eV     1   --> B_1  D_3  S_3  
     e( 14 - 14) =     29.06462  eV     1   --> A_1  D_1  S_1  
     e( 15 - 15) =     29.91438  eV     1   --> B_1  D_3  S_3  
     e( 16 - 16) =     30.01621  eV     1   --> A_1  D_1  S_1  
     e( 17 - 17) =     30.35331  eV     1   --> B_2  D_4  S_4  
     e( 18 - 18) =     33.64866  eV     1   --> A_1  D_1  S_1  
     e( 19 - 19) =     41.10721  eV     1   --> A_2  D_2  S_2  
     e( 20 - 20) =     42.79777  eV     1   --> B_2  D_4  S_4  

 **************************************************************************

 **************************************************************************

                    xk=(   0.00000,   0.17321,   0.00000  )

     Band symmetry, C_2v (mm2)  point group:

     e(  1 -  1) =    -39.08996  eV     1   --> A_1  D_1  S_1  
     e(  2 -  2) =    -13.33785  eV     1   --> B_2  D_4  S_4  
     e(  3 -  3) =    -13.06267  eV     1   --> A_1  D_1  S_1  
     e(  4 -  4) =    -12.90128  eV     1   --> B_1  D_3  S_3  
     e(  5 -  5) =      7.42796  eV     1   --> A_1  D_1  S_1  
     e(  6 -  6) =     16.29828  eV     1   --> A_1  D_1  S_1  
     e(  7 -  7) =     17.30344  eV     1   --> A_1  D_1  S_1  
     e(  8 -  8) =     17.52730  eV     1   --> B_1  D_3  S_3  
     e(  9 -  9) =     17.97038  eV     1   --> B_2  D_4  S_4  
     e( 10 - 10) =     22.76293  eV     1   --> A_2  D_2  S_2  
     e( 11 - 11) =     23.85490  eV     1   --> A_1  D_1  S_1  
     e( 12 - 12) =     24.31757  eV     1   --> B_1  D_3  S_3  
     e( 13 - 13) =     24.31986  eV     1   --> B_2  D_4  S_4  
     e( 14 - 14) =     29.19924  eV     1   --> A_1  D_1  S_1  
     e( 15 - 15) =     30.19443  eV     1   --> B_2  D_4  S_4  
     e( 16 - 16) =     30.22250  eV     1   --> B_1  D_3  S_3  
     e( 17 - 17) =     30.26789  eV     1   --> A_1  D_1  S_1  
     e( 18 - 18) =     33.68533  eV     1   --> A_1  D_1  S_1  
     e( 19 - 19) =     41.26674  eV     1   --> A_2  D_2  S_2  
     e( 20 - 20) =     43.19805  eV     1   --> B_2  D_4  S_4  

 **************************************************************************

 **************************************************************************

                    xk=(   0.00000,   0.18764,   0.00000  )

     Band symmetry, C_2v (mm2)  point group:

     e(  1 -  1) =    -39.08576  eV     1   --> A_1  D_1  S_1  
     e(  2 -  2) =    -13.33225  eV     1   --> B_2  D_4  S_4  
     e(  3 -  3) =    -13.09519  eV     1   --> A_1  D_1  S_1  
     e(  4 -  4) =    -12.90871  eV     1   --> B_1  D_3  S_3  
     e(  5 -  5) =      7.51266  eV     1   --> A_1  D_1  S_1  
     e(  6 -  6) =     16.15332  eV     1   --> A_1  D_1  S_1  
     e(  7 -  7) =     17.34855  eV     1   --> A_1  D_1  S_1  
     e(  8 -  8) =     17.55980  eV     1   --> B_1  D_3  S_3  
     e(  9 -  9) =     17.85252  eV     1   --> B_2  D_4  S_4  
     e( 10 - 10) =     22.72732  eV     1   --> A_2  D_2  S_2  
     e( 11 - 11) =     23.70363  eV     1   --> A_1  D_1  S_1  
     e( 12 - 12) =     24.22196  eV     1   --> B_1  D_3  S_3  
     e( 13 - 13) =     24.47741  eV     1   --> B_2  D_4  S_4  
     e( 14 - 14) =     29.32529  eV     1   --> A_1  D_1  S_1  
     e( 15 - 15) =     30.04837  eV     1   --> B_2  D_4  S_4  
     e( 16 - 16) =     30.53553  eV     1   --> A_1  D_1  S_1  
     e( 17 - 17) =     30.53916  eV     1   --> B_1  D_3  S_3  
     e( 18 - 18) =     33.71858  eV     1   --> A_1  D_1  S_1  
     e( 19 - 19) =     41.43832  eV     1   --> A_2  D_2  S_2  
     e( 20 - 20) =     43.61180  eV     1   --> B_2  D_4  S_4  

 **************************************************************************

 **************************************************************************

                    xk=(   0.00000,   0.20207,   0.00000  )

     Band symmetry, C_2v (mm2)  point group:

     e(  1 -  1) =    -39.08136  eV     1   --> A_1  D_1  S_1  
     e(  2 -  2) =    -13.32638  eV     1   --> B_2  D_4  S_4  
     e(  3 -  3) =    -13.12917  eV     1   --> A_1  D_1  S_1  
     e(  4 -  4) =    -12.91650  eV     1   --> B_1  D_3  S_3  
     e(  5 -  5) =      7.60273  eV     1   --> A_1  D_1  S_1  
     e(  6 -  6) =     16.00327  eV     1   --> A_1  D_1  S_1  
     e(  7 -  7) =     17.39112  eV     1   --> A_1  D_1  S_1  
     e(  8 -  8) =     17.59168  eV     1   --> B_1  D_3  S_3  
     e(  9 -  9) =     17.73497  eV     1   --> B_2  D_4  S_4  
     e( 10 - 10) =     22.69029  eV     1   --> A_2  D_2  S_2  
     e( 11 - 11) =     23.56586  eV     1   --> A_1  D_1  S_1  
     e( 12 - 12) =     24.13610  eV     1   --> B_1  D_3  S_3  
     e( 13 - 13) =     24.62863  eV     1   --> B_2  D_4  S_4  
     e( 14 - 14) =     29.44063  eV     1   --> A_1  D_1  S_1  
     e( 15 - 15) =     29.91288  eV     1   --> B_2  D_4  S_4  
     e( 16 - 16) =     30.81472  eV     1   --> A_1  D_1  S_1  
     e( 17 - 17) =     30.86344  eV     1   --> B_1  D_3  S_3  
     e( 18 - 18) =     33.74601  eV     1   --> A_1  D_1  S_1  
     e( 19 - 19) =     41.62115  eV     1   --> A_2  D_2  S_2  
     e( 20 - 20) =     44.03235  eV     1   --> B_2  D_4  S_4  

 **************************************************************************

 **************************************************************************

                    xk=(   0.00000,   0.21651,   0.00000  )

     Band symmetry, C_2v (mm2)  point group:

     e(  1 -  1) =    -39.07677  eV     1   --> A_1  D_1  S_1  
     e(  2 -  2) =    -13.32026  eV     1   --> B_2  D_4  S_4  
     e(  3 -  3) =    -13.16438  eV     1   --> A_1  D_1  S_1  
     e(  4 -  4) =    -12.92459  eV     1   --> B_1  D_3  S_3  
     e(  5 -  5) =      7.69866  eV     1   --> A_1  D_1  S_1  
     e(  6 -  6) =     15.84962  eV     1   --> A_1  D_1  S_1  
     e(  7 -  7) =     17.42982  eV     1   --> A_1  D_1  S_1  
     e(  8 -  8) =     17.61901  eV     1   --> B_2  D_4  S_4  
     e(  9 -  9) =     17.62339  eV     1   --> B_1  D_3  S_3  
     e( 10 - 10) =     22.65211  eV     1   --> A_2  D_2  S_2  
     e( 11 - 11) =     23.44501  eV     1   --> A_1  D_1  S_1  
     e( 12 - 12) =     24.06176  eV     1   --> B_1  D_3  S_3  
     e( 13 - 13) =     24.77076  eV     1   --> B_2  D_4  S_4  
     e( 14 - 14) =     29.54855  eV     1   --> A_1  D_1  S_1  
     e( 15 - 15) =     29.79626  eV     1   --> B_2  D_4  S_4  
     e( 16 - 16) =     31.10790  eV     1   --> A_1  D_1  S_1  
     e( 17 - 17) =     31.19492  eV     1   --> B_1  D_3  S_3  
     e( 18 - 18) =     33.76724  eV     1   --> A_1  D_1  S_1  
     e( 19 - 19) =     41.81503  eV     1   --> A_2  D_2  S_2  
     e( 20 - 20) =     44.45612  eV     1   --> B_2  D_4  S_4  

 **************************************************************************

 **************************************************************************

                    xk=(   0.00000,   0.23094,   0.00000  )

     Band symmetry, C_2v (mm2)  point group:

     e(  1 -  1) =    -39.07202  eV     1   --> A_1  D_1  S_1  
     e(  2 -  2) =    -13.31393  eV     1   --> B_2  D_4  S_4  
     e(  3 -  3) =    -13.20058  eV     1   --> A_1  D_1  S_1  
     e(  4 -  4) =    -12.93294  eV     1   --> B_1  D_3  S_3  
     e(  5 -  5) =      7.79975  eV     1   --> A_1  D_1  S_1  
     e(  6 -  6) =     15.69253  eV     1   --> A_1  D_1  S_1  
     e(  7 -  7) =     17.46320  eV     1   --> A_1  D_1  S_1  
     e(  8 -  8) =     17.50473  eV     1   --> B_2  D_4  S_4  
     e(  9 -  9) =     17.65423  eV     1   --> B_1  D_3  S_3  
     e( 10 - 10) =     22.61306  eV     1   --> A_2  D_2  S_2  
     e( 11 - 11) =     23.34238  eV     1   --> A_1  D_1  S_1  
     e( 12 - 12) =     23.99871  eV     1   --> B_1  D_3  S_3  
     e( 13 - 13) =     24.90021  eV     1   --> B_2  D_4  S_4  
     e( 14 - 14) =     29.64494  eV     1   --> A_1  D_1  S_1  
     e( 15 - 15) =     29.70092  eV     1   --> B_2  D_4  S_4  
     e( 16 - 16) =     31.41152  eV     1   --> A_1  D_1  S_1  
     e( 17 - 17) =     31.53382  eV     1   --> B_1  D_3  S_3  
     e( 18 - 18) =     33.77939  eV     1   --> A_1  D_1  S_1  
     e( 19 - 19) =     42.01931  eV     1   --> A_2  D_2  S_2  
     e( 20 - 20) =     44.50105  eV     1   --> A_1  D_1  S_1  

 **************************************************************************

 **************************************************************************

                    xk=(   0.00000,   0.24537,   0.00000  )

     Band symmetry, C_2v (mm2)  point group:

     e(  1 -  1) =    -39.06716  eV     1   --> A_1  D_1  S_1  
     e(  2 -  2) =    -13.30743  eV     1   --> B_2  D_4  S_4  
     e(  3 -  3) =    -13.23756  eV     1   --> A_1  D_1  S_1  
     e(  4 -  4) =    -12.94149  eV     1   --> B_1  D_3  S_3  
     e(  5 -  5) =      7.90495  eV     1   --> A_1  D_1  S_1  
     e(  6 -  6) =     15.53232  eV     1   --> A_1  D_1  S_1  
     e(  7 -  7) =     17.39286  eV     1   --> B_2  D_4  S_4  
     e(  8 -  8) =     17.48988  eV     1   --> A_1  D_1  S_1  
     e(  9 -  9) =     17.68327  eV     1   --> B_1  D_3  S_3  
     e( 10 - 10) =     22.57339  eV     1   --> A_2  D_2  S_2  
     e( 11 - 11) =     23.25898  eV     1   --> A_1  D_1  S_1  
     e( 12 - 12) =     23.94669  eV     1   --> B_1  D_3  S_3  
     e( 13 - 13) =     25.01396  eV     1   --> B_2  D_4  S_4  
     e( 14 - 14) =     29.63027  eV     1   --> B_2  D_4  S_4  
     e( 15 - 15) =     29.73183  eV     1   --> A_1  D_1  S_1  
     e( 16 - 16) =     31.72418  eV     1   --> A_1  D_1  S_1  
     e( 17 - 17) =     31.87625  eV     1   --> B_1  D_3  S_3  
     e( 18 - 18) =     33.77986  eV     1   --> A_1  D_1  S_1  
     e( 19 - 19) =     42.23337  eV     1   --> A_2  D_2  S_2  
     e( 20 - 20) =     44.42258  eV     1   --> A_1  D_1  S_1  

 **************************************************************************

 **************************************************************************

                    xk=(   0.00000,   0.25981,   0.00000  )

     Band symmetry, C_2v (mm2)  point group:

     e(  1 -  1) =    -39.06219  eV     1   --> A_1  D_1  S_1  
     e(  2 -  2) =    -13.30080  eV     1   --> B_2  D_4  S_4  
     e(  3 -  3) =    -13.27506  eV     1   --> A_1  D_1  S_1  
     e(  4 -  4) =    -12.95019  eV     1   --> B_1  D_3  S_3  
     e(  5 -  5) =      8.01576  eV     1   --> A_1  D_1  S_1  
     e(  6 -  6) =     15.36988  eV     1   --> A_1  D_1  S_1  
     e(  7 -  7) =     17.28385  eV     1   --> B_2  D_4  S_4  
     e(  8 -  8) =     17.50870  eV     1   --> A_1  D_1  S_1  
     e(  9 -  9) =     17.71057  eV     1   --> B_1  D_3  S_3  
     e( 10 - 10) =     22.53337  eV     1   --> A_2  D_2  S_2  
     e( 11 - 11) =     23.19718  eV     1   --> A_1  D_1  S_1  
     e( 12 - 12) =     23.90685  eV     1   --> B_1  D_3  S_3  
     e( 13 - 13) =     25.10919  eV     1   --> B_2  D_4  S_4  
     e( 14 - 14) =     29.58727  eV     1   --> B_2  D_4  S_4  
     e( 15 - 15) =     29.80980  eV     1   --> A_1  D_1  S_1  
     e( 16 - 16) =     32.04442  eV     1   --> A_1  D_1  S_1  
     e( 17 - 17) =     32.22631  eV     1   --> B_1  D_3  S_3  
     e( 18 - 18) =     33.76981  eV     1   --> A_1  D_1  S_1  
     e( 19 - 19) =     42.45671  eV     1   --> A_2  D_2  S_2  
     e( 20 - 20) =     44.31971  eV     1   --> A_1  D_1  S_1  

 **************************************************************************

 **************************************************************************

                    xk=(   0.00000,   0.27424,   0.00000  )

     Band symmetry, C_2v (mm2)  point group:

     e(  1 -  1) =    -39.05715  eV     1   --> A_1  D_1  S_1  
     e(  2 -  2) =    -13.31285  eV     1   --> A_1  D_1  S_1  
     e(  3 -  3) =    -13.29407  eV     1   --> B_2  D_4  S_4  
     e(  4 -  4) =    -12.95898  eV     1   --> B_1  D_3  S_3  
     e(  5 -  5) =      8.13117  eV     1   --> A_1  D_1  S_1  
     e(  6 -  6) =     15.20705  eV     1   --> A_1  D_1  S_1  
     e(  7 -  7) =     17.17814  eV     1   --> B_2  D_4  S_4  
     e(  8 -  8) =     17.51871  eV     1   --> A_1  D_1  S_1  
     e(  9 -  9) =     17.73567  eV     1   --> B_1  D_3  S_3  
     e( 10 - 10) =     22.49326  eV     1   --> A_2  D_2  S_2  
     e( 11 - 11) =     23.15929  eV     1   --> A_1  D_1  S_1  
     e( 12 - 12) =     23.87862  eV     1   --> B_1  D_3  S_3  
     e( 13 - 13) =     25.18380  eV     1   --> B_2  D_4  S_4  
     e( 14 - 14) =     29.57515  eV     1   --> B_2  D_4  S_4  
     e( 15 - 15) =     29.87985  eV     1   --> A_1  D_1  S_1  
     e( 16 - 16) =     32.37091  eV     1   --> A_1  D_1  S_1  
     e( 17 - 17) =     32.58189  eV     1   --> B_1  D_3  S_3  
     e( 18 - 18) =     33.74746  eV     1   --> A_1  D_1  S_1  
     e( 19 - 19) =     42.68878  eV     1   --> A_2  D_2  S_2  
     e( 20 - 20) =     44.19224  eV     1   --> A_1  D_1  S_1  

 **************************************************************************

 **************************************************************************

                    xk=(   0.00000,   0.28868,   0.00000  )

     Band symmetry, C_2v (mm2)  point group:

     e(  1 -  1) =    -39.05207  eV     1   --> A_1  D_1  S_1  
     e(  2 -  2) =    -13.35069  eV     1   --> A_1  D_1  S_1  
     e(  3 -  3) =    -13.28730  eV     1   --> B_2  D_4  S_4  
     e(  4 -  4) =    -12.96781  eV     1   --> B_1  D_3  S_3  
     e(  5 -  5) =      8.25082  eV     1   --> A_1  D_1  S_1  
     e(  6 -  6) =     15.04144  eV     1   --> A_1  D_1  S_1  
     e(  7 -  7) =     17.07590  eV     1   --> B_2  D_4  S_4  
     e(  8 -  8) =     17.51919  eV     1   --> A_1  D_1  S_1  
     e(  9 -  9) =     17.75830  eV     1   --> B_1  D_3  S_3  
     e( 10 - 10) =     22.45329  eV     1   --> A_2  D_2  S_2  
     e( 11 - 11) =     23.14383  eV     1   --> A_1  D_1  S_1  
     e( 12 - 12) =     23.86180  eV     1   --> B_1  D_3  S_3  
     e( 13 - 13) =     25.23645  eV     1   --> B_2  D_4  S_4  
     e( 14 - 14) =     29.59278  eV     1   --> B_2  D_4  S_4  
     e( 15 - 15) =     29.94031  eV     1   --> A_1  D_1  S_1  
     e( 16 - 16) =     32.70027  eV     1   --> A_1  D_1  S_1  
     e( 17 - 17) =     32.94217  eV     1   --> B_1  D_3  S_3  
     e( 18 - 18) =     33.71223  eV     1   --> A_1  D_1  S_1  
     e( 19 - 19) =     42.92860  eV     1   --> A_2  D_2  S_2  
     e( 20 - 20) =     44.04199  eV     1   --> A_1  D_1  S_1  

 **************************************************************************

 **************************************************************************

                    xk=(   0.00000,   0.30311,   0.00000  )

     Band symmetry, C_2v (mm2)  point group:

     e(  1 -  1) =    -39.04700  eV     1   --> A_1  D_1  S_1  
     e(  2 -  2) =    -13.38836  eV     1   --> A_1  D_1  S_1  
     e(  3 -  3) =    -13.28052  eV     1   --> B_2  D_4  S_4  
     e(  4 -  4) =    -12.97662  eV     1   --> B_1  D_3  S_3  
     e(  5 -  5) =      8.37453  eV     1   --> A_1  D_1  S_1  
     e(  6 -  6) =     14.87482  eV     1   --> A_1  D_1  S_1  
     e(  7 -  7) =     16.97749  eV     1   --> B_2  D_4  S_4  
     e(  8 -  8) =     17.50992  eV     1   --> A_1  D_1  S_1  
     e(  9 -  9) =     17.77826  eV     1   --> B_1  D_3  S_3  
     e( 10 - 10) =     22.41372  eV     1   --> A_2  D_2  S_2  
     e( 11 - 11) =     23.15243  eV     1   --> A_1  D_1  S_1  
     e( 12 - 12) =     23.85605  eV     1   --> B_1  D_3  S_3  
     e( 13 - 13) =     25.26714  eV     1   --> B_2  D_4  S_4  
     e( 14 - 14) =     29.64115  eV     1   --> B_2  D_4  S_4  
     e( 15 - 15) =     29.99227  eV     1   --> A_1  D_1  S_1  
     e( 16 - 16) =     33.02702  eV     1   --> A_1  D_1  S_1  
     e( 17 - 17) =     33.30686  eV     1   --> B_1  D_3  S_3  
     e( 18 - 18) =     33.66848  eV     1   --> A_1  D_1  S_1  
     e( 19 - 19) =     43.17556  eV     1   --> A_2  D_2  S_2  
     e( 20 - 20) =     43.87418  eV     1   --> A_1  D_1  S_1  

 **************************************************************************

 **************************************************************************

                    xk=(   0.00000,   0.31754,   0.00000  )

     Band symmetry, C_2v (mm2)  point group:

     e(  1 -  1) =    -39.04194  eV     1   --> A_1  D_1  S_1  
     e(  2 -  2) =    -13.42562  eV     1   --> A_1  D_1  S_1  
     e(  3 -  3) =    -13.27377  eV     1   --> B_2  D_4  S_4  
     e(  4 -  4) =    -12.98537  eV     1   --> B_1  D_3  S_3  
     e(  5 -  5) =      8.50203  eV     1   --> A_1  D_1  S_1  
     e(  6 -  6) =     14.70746  eV     1   --> A_1  D_1  S_1  
     e(  7 -  7) =     16.88315  eV     1   --> B_2  D_4  S_4  
     e(  8 -  8) =     17.49103  eV     1   --> A_1  D_1  S_1  
     e(  9 -  9) =     17.79545  eV     1   --> B_1  D_3  S_3  
     e( 10 - 10) =     22.37477  eV     1   --> A_2  D_2  S_2  
     e( 11 - 11) =     23.18500  eV     1   --> A_1  D_1  S_1  
     e( 12 - 12) =     23.86088  eV     1   --> B_1  D_3  S_3  
     e( 13 - 13) =     25.27702  eV     1   --> B_2  D_4  S_4  
     e( 14 - 14) =     29.71877  eV     1   --> B_2  D_4  S_4  
     e( 15 - 15) =     30.03581  eV     1   --> A_1  D_1  S_1  
     e( 16 - 16) =     33.32075  eV     1   --> A_1  D_1  S_1  
     e( 17 - 17) =     33.64518  eV     1   --> A_1  D_1  S_1  
     e( 18 - 18) =     33.67542  eV     1   --> B_1  D_3  S_3  
     e( 19 - 19) =     43.42887  eV     1   --> A_2  D_2  S_2  
     e( 20 - 20) =     43.69386  eV     1   --> A_1  D_1  S_1  

 **************************************************************************

 **************************************************************************

                    xk=(   0.00000,   0.33198,   0.00000  )

     Band symmetry, C_2v (mm2)  point group:

     e(  1 -  1) =    -39.03695  eV     1   --> A_1  D_1  S_1  
     e(  2 -  2) =    -13.46225  eV     1   --> A_1  D_1  S_1  
     e(  3 -  3) =    -13.26710  eV     1   --> B_2  D_4  S_4  
     e(  4 -  4) =    -12.99399  eV     1   --> B_1  D_3  S_3  
     e(  5 -  5) =      8.63307  eV     1   --> A_1  D_1  S_1  
     e(  6 -  6) =     14.53964  eV     1   --> A_1  D_1  S_1  
     e(  7 -  7) =     16.79307  eV     1   --> B_2  D_4  S_4  
     e(  8 -  8) =     17.46308  eV     1   --> A_1  D_1  S_1  
     e(  9 -  9) =     17.80982  eV     1   --> B_1  D_3  S_3  
     e( 10 - 10) =     22.33667  eV     1   --> A_2  D_2  S_2  
     e( 11 - 11) =     23.24095  eV     1   --> A_1  D_1  S_1  
     e( 12 - 12) =     23.87564  eV     1   --> B_1  D_3  S_3  
     e( 13 - 13) =     25.26820  eV     1   --> B_2  D_4  S_4  
     e( 14 - 14) =     29.82308  eV     1   --> B_2  D_4  S_4  
     e( 15 - 15) =     30.07085  eV     1   --> A_1  D_1  S_1  
     e( 16 - 16) =     33.41597  eV     1   --> A_1  D_1  S_1  
     e( 17 - 17) =     33.80689  eV     1   --> A_1  D_1  S_1  
     e( 18 - 18) =     34.04728  eV     1   --> B_1  D_3  S_3  
     e( 19 - 19) =     43.50576  eV     1   --> A_1  D_1  S_1  
     e( 20 - 20) =     43.68762  eV     1   --> A_2  D_2  S_2  

 **************************************************************************

 **************************************************************************

                    xk=(   0.00000,   0.34641,   0.00000  )

     Band symmetry, C_2v (mm2)  point group:

     e(  1 -  1) =    -39.03204  eV     1   --> A_1  D_1  S_1  
     e(  2 -  2) =    -13.49804  eV     1   --> A_1  D_1  S_1  
     e(  3 -  3) =    -13.26054  eV     1   --> B_2  D_4  S_4  
     e(  4 -  4) =    -13.00244  eV     1   --> B_1  D_3  S_3  
     e(  5 -  5) =      8.76736  eV     1   --> A_1  D_1  S_1  
     e(  6 -  6) =     14.37156  eV     1   --> A_1  D_1  S_1  
     e(  7 -  7) =     16.70743  eV     1   --> B_2  D_4  S_4  
     e(  8 -  8) =     17.42699  eV     1   --> A_1  D_1  S_1  
     e(  9 -  9) =     17.82144  eV     1   --> B_1  D_3  S_3  
     e( 10 - 10) =     22.29962  eV     1   --> A_2  D_2  S_2  
     e( 11 - 11) =     23.31924  eV     1   --> A_1  D_1  S_1  
     e( 12 - 12) =     23.89954  eV     1   --> B_1  D_3  S_3  
     e( 13 - 13) =     25.24350  eV     1   --> B_2  D_4  S_4  
     e( 14 - 14) =     29.95066  eV     1   --> B_2  D_4  S_4  
     e( 15 - 15) =     30.09721  eV     1   --> A_1  D_1  S_1  
     e( 16 - 16) =     33.34629  eV     1   --> A_1  D_1  S_1  
     e( 17 - 17) =     34.11960  eV     1   --> A_1  D_1  S_1  
     e( 18 - 18) =     34.42177  eV     1   --> B_1  D_3  S_3  
     e( 19 - 19) =     43.31383  eV     1   --> A_1  D_1  S_1  
     e( 20 - 20) =     43.60115  eV     1   --> B_1  D_3  S_3  

 **************************************************************************

 **************************************************************************

                    xk=(   0.00000,   0.36084,   0.00000  )

     Band symmetry, C_2v (mm2)  point group:

     e(  1 -  1) =    -39.02725  eV     1   --> A_1  D_1  S_1  
     e(  2 -  2) =    -13.53277  eV     1   --> A_1  D_1  S_1  
     e(  3 -  3) =    -13.25414  eV     1   --> B_2  D_4  S_4  
     e(  4 -  4) =    -13.01065  eV     1   --> B_1  D_3  S_3  
     e(  5 -  5) =      8.90462  eV     1   --> A_1  D_1  S_1  
     e(  6 -  6) =     14.20363  eV     1   --> A_1  D_1  S_1  
     e(  7 -  7) =     16.62641  eV     1   --> B_2  D_4  S_4  
     e(  8 -  8) =     17.38395  eV     1   --> A_1  D_1  S_1  
     e(  9 -  9) =     17.83099  eV     1   --> B_1  D_3  S_3  
     e( 10 - 10) =     22.26383  eV     1   --> A_2  D_2  S_2  
     e( 11 - 11) =     23.41845  eV     1   --> A_1  D_1  S_1  
     e( 12 - 12) =     23.93180  eV     1   --> B_1  D_3  S_3  
     e( 13 - 13) =     25.20658  eV     1   --> B_2  D_4  S_4  
     e( 14 - 14) =     30.09784  eV     1   --> B_2  D_4  S_4  
     e( 15 - 15) =     30.11548  eV     1   --> A_1  D_1  S_1  
     e( 16 - 16) =     33.24097  eV     1   --> A_1  D_1  S_1  
     e( 17 - 17) =     34.45572  eV     1   --> A_1  D_1  S_1  
     e( 18 - 18) =     34.79814  eV     1   --> B_1  D_3  S_3  
     e( 19 - 19) =     43.12143  eV     1   --> A_1  D_1  S_1  
     e( 20 - 20) =     43.21157  eV     1   --> B_1  D_3  S_3  

 **************************************************************************

 **************************************************************************

                    xk=(   0.00000,   0.37528,   0.00000  )

     Band symmetry, C_2v (mm2)  point group:

     e(  1 -  1) =    -39.02261  eV     1   --> A_1  D_1  S_1  
     e(  2 -  2) =    -13.56626  eV     1   --> A_1  D_1  S_1  
     e(  3 -  3) =    -13.24794  eV     1   --> B_2  D_4  S_4  
     e(  4 -  4) =    -13.01860  eV     1   --> B_1  D_3  S_3  
     e(  5 -  5) =      9.04449  eV     1   --> A_1  D_1  S_1  
     e(  6 -  6) =     14.03568  eV     1   --> A_1  D_1  S_1  
     e(  7 -  7) =     16.55010  eV     1   --> B_2  D_4  S_4  
     e(  8 -  8) =     17.33533  eV     1   --> A_1  D_1  S_1  
     e(  9 -  9) =     17.83747  eV     1   --> B_1  D_3  S_3  
     e( 10 - 10) =     22.22948  eV     1   --> A_2  D_2  S_2  
     e( 11 - 11) =     23.53670  eV     1   --> A_1  D_1  S_1  
     e( 12 - 12) =     23.97104  eV     1   --> B_1  D_3  S_3  
     e( 13 - 13) =     25.15950  eV     1   --> B_2  D_4  S_4  
     e( 14 - 14) =     30.12312  eV     1   --> A_1  D_1  S_1  
     e( 15 - 15) =     30.26023  eV     1   --> B_2  D_4  S_4  
     e( 16 - 16) =     33.11752  eV     1   --> A_1  D_1  S_1  
     e( 17 - 17) =     34.79568  eV     1   --> A_1  D_1  S_1  
     e( 18 - 18) =     35.17543  eV     1   --> B_1  D_3  S_3  
     e( 19 - 19) =     42.83866  eV     1   --> B_1  D_3  S_3  
     e( 20 - 20) =     42.93006  eV     1   --> A_1  D_1  S_1  

 **************************************************************************

 **************************************************************************

                    xk=(   0.00000,   0.38971,   0.00000  )

     Band symmetry, C_2v (mm2)  point group:

     e(  1 -  1) =    -39.01814  eV     1   --> A_1  D_1  S_1  
     e(  2 -  2) =    -13.59830  eV     1   --> A_1  D_1  S_1  
     e(  3 -  3) =    -13.24197  eV     1   --> B_2  D_4  S_4  
     e(  4 -  4) =    -13.02622  eV     1   --> B_1  D_3  S_3  
     e(  5 -  5) =      9.18638  eV     1   --> A_1  D_1  S_1  
     e(  6 -  6) =     13.86829  eV     1   --> A_1  D_1  S_1  
     e(  7 -  7) =     16.47846  eV     1   --> B_2  D_4  S_4  
     e(  8 -  8) =     17.28268  eV     1   --> A_1  D_1  S_1  
     e(  9 -  9) =     17.84177  eV     1   --> B_1  D_3  S_3  
     e( 10 - 10) =     22.19674  eV     1   --> A_2  D_2  S_2  
     e( 11 - 11) =     23.67204  eV     1   --> A_1  D_1  S_1  
     e( 12 - 12) =     24.01635  eV     1   --> B_1  D_3  S_3  
     e( 13 - 13) =     25.10586  eV     1   --> B_2  D_4  S_4  
     e( 14 - 14) =     30.12057  eV     1   --> A_1  D_1  S_1  
     e( 15 - 15) =     30.43380  eV     1   --> B_2  D_4  S_4  
     e( 16 - 16) =     32.98298  eV     1   --> A_1  D_1  S_1  
     e( 17 - 17) =     35.13493  eV     1   --> A_1  D_1  S_1  
     e( 18 - 18) =     35.55358  eV     1   --> B_1  D_3  S_3  
     e( 19 - 19) =     42.48357  eV     1   --> B_1  D_3  S_3  
     e( 20 - 20) =     42.73971  eV     1   --> A_1  D_1  S_1  

 **************************************************************************

 **************************************************************************

                    xk=(   0.00000,   0.40415,   0.00000  )

     Band symmetry, C_2v (mm2)  point group:

     e(  1 -  1) =    -39.01389  eV     1   --> A_1  D_1  S_1  
     e(  2 -  2) =    -13.62872  eV     1   --> A_1  D_1  S_1  
     e(  3 -  3) =    -13.23628  eV     1   --> B_2  D_4  S_4  
     e(  4 -  4) =    -13.03347  eV     1   --> B_1  D_3  S_3  
     e(  5 -  5) =      9.33037  eV     1   --> A_1  D_1  S_1  
     e(  6 -  6) =     13.70143  eV     1   --> A_1  D_1  S_1  
     e(  7 -  7) =     16.41194  eV     1   --> B_2  D_4  S_4  
     e(  8 -  8) =     17.22744  eV     1   --> A_1  D_1  S_1  
     e(  9 -  9) =     17.84404  eV     1   --> B_1  D_3  S_3  
     e( 10 - 10) =     22.16578  eV     1   --> A_2  D_2  S_2  
     e( 11 - 11) =     23.82195  eV     1   --> A_1  D_1  S_1  
     e( 12 - 12) =     24.06625  eV     1   --> B_1  D_3  S_3  
     e( 13 - 13) =     25.04805  eV     1   --> B_2  D_4  S_4  
     e( 14 - 14) =     30.10681  eV     1   --> A_1  D_1  S_1  
     e( 15 - 15) =     30.61512  eV     1   --> B_2  D_4  S_4  
     e( 16 - 16) =     32.84179  eV     1   --> A_1  D_1  S_1  
     e( 17 - 17) =     35.47121  eV     1   --> A_1  D_1  S_1  
     e( 18 - 18) =     35.92933  eV     1   --> B_1  D_3  S_3  
     e( 19 - 19) =     42.14746  eV     1   --> B_1  D_3  S_3  
     e( 20 - 20) =     42.55430  eV     1   --> A_1  D_1  S_1  

 **************************************************************************

 **************************************************************************

                    xk=(   0.00000,   0.41858,   0.00000  )

     Band symmetry, C_2v (mm2)  point group:

     e(  1 -  1) =    -39.00987  eV     1   --> A_1  D_1  S_1  
     e(  2 -  2) =    -13.65735  eV     1   --> A_1  D_1  S_1  
     e(  3 -  3) =    -13.23090  eV     1   --> B_2  D_4  S_4  
     e(  4 -  4) =    -13.04030  eV     1   --> B_1  D_3  S_3  
     e(  5 -  5) =      9.47577  eV     1   --> A_1  D_1  S_1  
     e(  6 -  6) =     13.53559  eV     1   --> A_1  D_1  S_1  
     e(  7 -  7) =     16.35046  eV     1   --> B_2  D_4  S_4  
     e(  8 -  8) =     17.17113  eV     1   --> A_1  D_1  S_1  
     e(  9 -  9) =     17.84464  eV     1   --> B_1  D_3  S_3  
     e( 10 - 10) =     22.13676  eV     1   --> A_2  D_2  S_2  
     e( 11 - 11) =     23.98400  eV     1   --> A_1  D_1  S_1  
     e( 12 - 12) =     24.11949  eV     1   --> B_1  D_3  S_3  
     e( 13 - 13) =     24.98850  eV     1   --> B_2  D_4  S_4  
     e( 14 - 14) =     30.08108  eV     1   --> A_1  D_1  S_1  
     e( 15 - 15) =     30.80026  eV     1   --> B_2  D_4  S_4  
     e( 16 - 16) =     32.69780  eV     1   --> A_1  D_1  S_1  
     e( 17 - 17) =     35.80255  eV     1   --> A_1  D_1  S_1  
     e( 18 - 18) =     36.30208  eV     1   --> B_1  D_3  S_3  
     e( 19 - 19) =     41.83147  eV     1   --> B_1  D_3  S_3  
     e( 20 - 20) =     42.37237  eV     1   --> A_1  D_1  S_1  

 **************************************************************************

 **************************************************************************

                    xk=(   0.00000,   0.43301,   0.00000  )

     Band symmetry, C_2v (mm2)  point group:

     e(  1 -  1) =    -39.00611  eV     1   --> A_1  D_1  S_1  
     e(  2 -  2) =    -13.68404  eV     1   --> A_1  D_1  S_1  
     e(  3 -  3) =    -13.22587  eV     1   --> B_2  D_4  S_4  
     e(  4 -  4) =    -13.04669  eV     1   --> B_1  D_3  S_3  
     e(  5 -  5) =      9.62156  eV     1   --> A_1  D_1  S_1  
     e(  6 -  6) =     13.37115  eV     1   --> A_1  D_1  S_1  
     e(  7 -  7) =     16.29396  eV     1   --> B_2  D_4  S_4  
     e(  8 -  8) =     17.11511  eV     1   --> A_1  D_1  S_1  
     e(  9 -  9) =     17.84386  eV     1   --> B_1  D_3  S_3  
     e( 10 - 10) =     22.10980  eV     1   --> A_2  D_2  S_2  
     e( 11 - 11) =     24.15539  eV     1   --> A_1  D_1  S_1  
     e( 12 - 12) =     24.17466  eV     1   --> B_1  D_3  S_3  
     e( 13 - 13) =     24.92910  eV     1   --> B_2  D_4  S_4  
     e( 14 - 14) =     30.04168  eV     1   --> A_1  D_1  S_1  
     e( 15 - 15) =     30.98536  eV     1   --> B_2  D_4  S_4  
     e( 16 - 16) =     32.55451  eV     1   --> A_1  D_1  S_1  
     e( 17 - 17) =     36.12653  eV     1   --> A_1  D_1  S_1  
     e( 18 - 18) =     36.66979  eV     1   --> B_1  D_3  S_3  
     e( 19 - 19) =     41.53656  eV     1   --> B_1  D_3  S_3  
     e( 20 - 20) =     42.19093  eV     1   --> A_1  D_1  S_1  

 **************************************************************************

 **************************************************************************

                    xk=(   0.00000,   0.44745,   0.00000  )

     Band symmetry, C_2v (mm2)  point group:

     e(  1 -  1) =    -39.00263  eV     1   --> A_1  D_1  S_1  
     e(  2 -  2) =    -13.70864  eV     1   --> A_1  D_1  S_1  
     e(  3 -  3) =    -13.22121  eV     1   --> B_2  D_4  S_4  
     e(  4 -  4) =    -13.05259  eV     1   --> B_1  D_3  S_3  
     e(  5 -  5) =      9.76783  eV     1   --> A_1  D_1  S_1  
     e(  6 -  6) =     13.20874  eV     1   --> A_1  D_1  S_1  
     e(  7 -  7) =     16.24276  eV     1   --> B_2  D_4  S_4  
     e(  8 -  8) =     17.06073  eV     1   --> A_1  D_1  S_1  
     e(  9 -  9) =     17.84098  eV     1   --> B_1  D_3  S_3  
     e( 10 - 10) =     22.08502  eV     1   --> A_2  D_2  S_2  
     e( 11 - 11) =     24.23023  eV     1   --> B_1  D_3  S_3  
     e( 12 - 12) =     24.33311  eV     1   --> A_1  D_1  S_1  
     e( 13 - 13) =     24.87053  eV     1   --> B_2  D_4  S_4  
     e( 14 - 14) =     29.98911  eV     1   --> A_1  D_1  S_1  
     e( 15 - 15) =     31.16744  eV     1   --> B_2  D_4  S_4  
     e( 16 - 16) =     32.41746  eV     1   --> A_1  D_1  S_1  
     e( 17 - 17) =     36.44173  eV     1   --> A_1  D_1  S_1  
     e( 18 - 18) =     37.03026  eV     1   --> B_1  D_3  S_3  
     e( 19 - 19) =     41.26385  eV     1   --> B_1  D_3  S_3  
     e( 20 - 20) =     42.01465  eV     1   --> A_1  D_1  S_1  

 **************************************************************************

 **************************************************************************

                    xk=(   0.00000,   0.46188,   0.00000  )

     Band symmetry, C_2v (mm2)  point group:

     e(  1 -  1) =    -38.99945  eV     1   --> A_1  D_1  S_1  
     e(  2 -  2) =    -13.73100  eV     1   --> A_1  D_1  S_1  
     e(  3 -  3) =    -13.21696  eV     1   --> B_2  D_4  S_4  
     e(  4 -  4) =    -13.05796  eV     1   --> B_1  D_3  S_3  
     e(  5 -  5) =      9.91349  eV     1   --> A_1  D_1  S_1  
     e(  6 -  6) =     13.04920  eV     1   --> A_1  D_1  S_1  
     e(  7 -  7) =     16.19740  eV     1   --> B_2  D_4  S_4  
     e(  8 -  8) =     17.00926  eV     1   --> A_1  D_1  S_1  
     e(  9 -  9) =     17.83839  eV     1   --> B_1  D_3  S_3  
     e( 10 - 10) =     22.06256  eV     1   --> A_2  D_2  S_2  
     e( 11 - 11) =     24.28496  eV     1   --> B_1  D_3  S_3  
     e( 12 - 12) =     24.51377  eV     1   --> A_1  D_1  S_1  
     e( 13 - 13) =     24.81670  eV     1   --> B_2  D_4  S_4  
     e( 14 - 14) =     29.92385  eV     1   --> A_1  D_1  S_1  
     e( 15 - 15) =     31.34413  eV     1   --> B_2  D_4  S_4  
     e( 16 - 16) =     32.29001  eV     1   --> A_1  D_1  S_1  
     e( 17 - 17) =     36.74649  eV     1   --> A_1  D_1  S_1  
     e( 18 - 18) =     37.38051  eV     1   --> B_1  D_3  S_3  
     e( 19 - 19) =     41.01487  eV     1   --> B_1  D_3  S_3  
     e( 20 - 20) =     41.84458  eV     1   --> A_1  D_1  S_1  

 **************************************************************************

 **************************************************************************

                    xk=(   0.00000,   0.47631,   0.00000  )

     Band symmetry, C_2v (mm2)  point group:

     e(  1 -  1) =    -38.99659  eV     1   --> A_1  D_1  S_1  
     e(  2 -  2) =    -13.75101  eV     1   --> A_1  D_1  S_1  
     e(  3 -  3) =    -13.21314  eV     1   --> B_2  D_4  S_4  
     e(  4 -  4) =    -13.06277  eV     1   --> B_1  D_3  S_3  
     e(  5 -  5) =     10.05713  eV     1   --> A_1  D_1  S_1  
     e(  6 -  6) =     12.89359  eV     1   --> A_1  D_1  S_1  
     e(  7 -  7) =     16.15695  eV     1   --> B_2  D_4  S_4  
     e(  8 -  8) =     16.96159  eV     1   --> A_1  D_1  S_1  
     e(  9 -  9) =     17.83538  eV     1   --> B_1  D_3  S_3  
     e( 10 - 10) =     22.04251  eV     1   --> A_2  D_2  S_2  
     e( 11 - 11) =     24.33732  eV     1   --> B_1  D_3  S_3  
     e( 12 - 12) =     24.69354  eV     1   --> A_1  D_1  S_1  
     e( 13 - 13) =     24.76672  eV     1   --> B_2  D_4  S_4  
     e( 14 - 14) =     29.84663  eV     1   --> A_1  D_1  S_1  
     e( 15 - 15) =     31.51011  eV     1   --> B_2  D_4  S_4  
     e( 16 - 16) =     32.17521  eV     1   --> A_1  D_1  S_1  
     e( 17 - 17) =     37.03759  eV     1   --> A_1  D_1  S_1  
     e( 18 - 18) =     37.71724  eV     1   --> B_1  D_3  S_3  
     e( 19 - 19) =     40.79034  eV     1   --> B_1  D_3  S_3  
     e( 20 - 20) =     41.68156  eV     1   --> A_1  D_1  S_1  

 **************************************************************************

 **************************************************************************

                    xk=(   0.00000,   0.49075,   0.00000  )

     Band symmetry, C_2v (mm2)  point group:

     e(  1 -  1) =    -38.99408  eV     1   --> A_1  D_1  S_1  
     e(  2 -  2) =    -13.76858  eV     1   --> A_1  D_1  S_1  
     e(  3 -  3) =    -13.20978  eV     1   --> B_2  D_4  S_4  
     e(  4 -  4) =    -13.06700  eV     1   --> B_1  D_3  S_3  
     e(  5 -  5) =     10.19702  eV     1   --> A_1  D_1  S_1  
     e(  6 -  6) =     12.74391  eV     1   --> A_1  D_1  S_1  
     e(  7 -  7) =     16.12166  eV     1   --> B_2  D_4  S_4  
     e(  8 -  8) =     16.91849  eV     1   --> A_1  D_1  S_1  
     e(  9 -  9) =     17.83251  eV     1   --> B_1  D_3  S_3  
     e( 10 - 10) =     22.02495  eV     1   --> A_2  D_2  S_2  
     e( 11 - 11) =     24.38592  eV     1   --> B_1  D_3  S_3  
     e( 12 - 12) =     24.72177  eV     1   --> B_2  D_4  S_4  
     e( 13 - 13) =     24.86816  eV     1   --> A_1  D_1  S_1  
     e( 14 - 14) =     29.76016  eV     1   --> A_1  D_1  S_1  
     e( 15 - 15) =     31.66270  eV     1   --> B_2  D_4  S_4  
     e( 16 - 16) =     32.07514  eV     1   --> A_1  D_1  S_1  
     e( 17 - 17) =     37.31222  eV     1   --> A_1  D_1  S_1  
     e( 18 - 18) =     38.03829  eV     1   --> B_1  D_3  S_3  
     e( 19 - 19) =     40.59087  eV     1   --> B_1  D_3  S_3  
     e( 20 - 20) =     41.51990  eV     1   --> A_1  D_1  S_1  

 **************************************************************************

 **************************************************************************

                    xk=(   0.00000,   0.50518,   0.00000  )

     Band symmetry, C_2v (mm2)  point group:

     e(  1 -  1) =    -38.99192  eV     1   --> A_1  D_1  S_1  
     e(  2 -  2) =    -13.78360  eV     1   --> A_1  D_1  S_1  
     e(  3 -  3) =    -13.20689  eV     1   --> B_2  D_4  S_4  
     e(  4 -  4) =    -13.07063  eV     1   --> B_1  D_3  S_3  
     e(  5 -  5) =     10.33088  eV     1   --> A_1  D_1  S_1  
     e(  6 -  6) =     12.60143  eV     1   --> A_1  D_1  S_1  
     e(  7 -  7) =     16.09172  eV     1   --> B_2  D_4  S_4  
     e(  8 -  8) =     16.88082  eV     1   --> A_1  D_1  S_1  
     e(  9 -  9) =     17.82935  eV     1   --> B_1  D_3  S_3  
     e( 10 - 10) =     22.00996  eV     1   --> A_2  D_2  S_2  
     e( 11 - 11) =     24.42948  eV     1   --> B_1  D_3  S_3  
     e( 12 - 12) =     24.68256  eV     1   --> B_2  D_4  S_4  
     e( 13 - 13) =     25.03196  eV     1   --> A_1  D_1  S_1  
     e( 14 - 14) =     29.66883  eV     1   --> A_1  D_1  S_1  
     e( 15 - 15) =     31.79843  eV     1   --> B_2  D_4  S_4  
     e( 16 - 16) =     31.99095  eV     1   --> A_1  D_1  S_1  
     e( 17 - 17) =     37.56466  eV     1   --> A_1  D_1  S_1  
     e( 18 - 18) =     38.33153  eV     1   --> B_1  D_3  S_3  
     e( 19 - 19) =     40.41710  eV     1   --> B_1  D_3  S_3  
     e( 20 - 20) =     41.36589  eV     1   --> A_1  D_1  S_1  

 **************************************************************************

 **************************************************************************

                    xk=(   0.00000,   0.51962,   0.00000  )

     Band symmetry, C_2v (mm2)  point group:

     e(  1 -  1) =    -38.99015  eV     1   --> A_1  D_1  S_1  
     e(  2 -  2) =    -13.79600  eV     1   --> A_1  D_1  S_1  
     e(  3 -  3) =    -13.20451  eV     1   --> B_2  D_4  S_4  
     e(  4 -  4) =    -13.07362  eV     1   --> B_1  D_3  S_3  
     e(  5 -  5) =     10.45489  eV     1   --> A_1  D_1  S_1  
     e(  6 -  6) =     12.47017  eV     1   --> A_1  D_1  S_1  
     e(  7 -  7) =     16.06716  eV     1   --> B_2  D_4  S_4  
     e(  8 -  8) =     16.84916  eV     1   --> A_1  D_1  S_1  
     e(  9 -  9) =     17.82643  eV     1   --> B_1  D_3  S_3  
     e( 10 - 10) =     21.99761  eV     1   --> A_2  D_2  S_2  
     e( 11 - 11) =     24.46685  eV     1   --> B_1  D_3  S_3  
     e( 12 - 12) =     24.64859  eV     1   --> B_2  D_4  S_4  
     e( 13 - 13) =     25.17950  eV     1   --> A_1  D_1  S_1  
     e( 14 - 14) =     29.57817  eV     1   --> A_1  D_1  S_1  
     e( 15 - 15) =     31.91443  eV     1   --> B_2  D_4  S_4  
     e( 16 - 16) =     31.92433  eV     1   --> A_1  D_1  S_1  
     e( 17 - 17) =     37.78917  eV     1   --> A_1  D_1  S_1  
     e( 18 - 18) =     38.59357  eV     1   --> B_1  D_3  S_3  
     e( 19 - 19) =     40.26947  eV     1   --> B_1  D_3  S_3  
     e( 20 - 20) =     41.22296  eV     1   --> A_1  D_1  S_1  

 **************************************************************************

 **************************************************************************

                    xk=(   0.00000,   0.53405,   0.00000  )

     Band symmetry, C_2v (mm2)  point group:

     e(  1 -  1) =    -38.98875  eV     1   --> A_1  D_1  S_1  
     e(  2 -  2) =    -13.80572  eV     1   --> A_1  D_1  S_1  
     e(  3 -  3) =    -13.20264  eV     1   --> B_2  D_4  S_4  
     e(  4 -  4) =    -13.07596  eV     1   --> B_1  D_3  S_3  
     e(  5 -  5) =     10.56473  eV     1   --> A_1  D_1  S_1  
     e(  6 -  6) =     12.35496  eV     1   --> A_1  D_1  S_1  
     e(  7 -  7) =     16.04805  eV     1   --> B_2  D_4  S_4  
     e(  8 -  8) =     16.82406  eV     1   --> A_1  D_1  S_1  
     e(  9 -  9) =     17.82400  eV     1   --> B_1  D_3  S_3  
     e( 10 - 10) =     21.98795  eV     1   --> A_2  D_2  S_2  
     e( 11 - 11) =     24.49703  eV     1   --> B_1  D_3  S_3  
     e( 12 - 12) =     24.62263  eV     1   --> B_2  D_4  S_4  
     e( 13 - 13) =     25.30422  eV     1   --> A_1  D_1  S_1  
     e( 14 - 14) =     29.49640  eV     1   --> A_1  D_1  S_1  
     e( 15 - 15) =     31.87270  eV     1   --> A_1  D_1  S_1  
     e( 16 - 16) =     32.00810  eV     1   --> B_2  D_4  S_4  
     e( 17 - 17) =     37.97998  eV     1   --> A_1  D_1  S_1  
     e( 18 - 18) =     38.81625  eV     1   --> B_1  D_3  S_3  
     e( 19 - 19) =     40.14865  eV     1   --> B_1  D_3  S_3  
     e( 20 - 20) =     41.09838  eV     1   --> A_1  D_1  S_1  

 **************************************************************************

 **************************************************************************

                    xk=(   0.00000,   0.54848,   0.00000  )

     Band symmetry, C_2v (mm2)  point group:

     e(  1 -  1) =    -38.98775  eV     1   --> A_1  D_1  S_1  
     e(  2 -  2) =    -13.81269  eV     1   --> A_1  D_1  S_1  
     e(  3 -  3) =    -13.20130  eV     1   --> B_2  D_4  S_4  
     e(  4 -  4) =    -13.07765  eV     1   --> B_1  D_3  S_3  
     e(  5 -  5) =     10.65311  eV     1   --> A_1  D_1  S_1  
     e(  6 -  6) =     12.26277  eV     1   --> A_1  D_1  S_1  
     e(  7 -  7) =     16.03438  eV     1   --> B_2  D_4  S_4  
     e(  8 -  8) =     16.80588  eV     1   --> A_1  D_1  S_1  
     e(  9 -  9) =     17.82217  eV     1   --> B_1  D_3  S_3  
     e( 10 - 10) =     21.98102  eV     1   --> A_2  D_2  S_2  
     e( 11 - 11) =     24.51919  eV     1   --> B_1  D_3  S_3  
     e( 12 - 12) =     24.60386  eV     1   --> B_2  D_4  S_4  
     e( 13 - 13) =     25.39961  eV     1   --> A_1  D_1  S_1  
     e( 14 - 14) =     29.43063  eV     1   --> A_1  D_1  S_1  
     e( 15 - 15) =     31.83661  eV     1   --> A_1  D_1  S_1  
     e( 16 - 16) =     32.07691  eV     1   --> B_2  D_4  S_4  
     e( 17 - 17) =     38.12719  eV     1   --> A_1  D_1  S_1  
     e( 18 - 18) =     38.98983  eV     1   --> B_1  D_3  S_3  
     e( 19 - 19) =     40.05613  eV     1   --> B_1  D_3  S_3  
     e( 20 - 20) =     40.99937  eV     1   --> A_1  D_1  S_1  

 **************************************************************************

 **************************************************************************

                    xk=(   0.00000,   0.56292,   0.00000  )

     Band symmetry, C_2v (mm2)  point group:

     e(  1 -  1) =    -38.98715  eV     1   --> A_1  D_1  S_1  
     e(  2 -  2) =    -13.81689  eV     1   --> A_1  D_1  S_1  
     e(  3 -  3) =    -13.20049  eV     1   --> B_2  D_4  S_4  
     e(  4 -  4) =    -13.07867  eV     1   --> B_1  D_3  S_3  
     e(  5 -  5) =     10.71120  eV     1   --> A_1  D_1  S_1  
     e(  6 -  6) =     12.20174  eV     1   --> A_1  D_1  S_1  
     e(  7 -  7) =     16.02617  eV     1   --> B_2  D_4  S_4  
     e(  8 -  8) =     16.79483  eV     1   --> A_1  D_1  S_1  
     e(  9 -  9) =     17.82063  eV     1   --> B_1  D_3  S_3  
     e( 10 - 10) =     21.97685  eV     1   --> A_2  D_2  S_2  
     e( 11 - 11) =     24.53265  eV     1   --> B_1  D_3  S_3  
     e( 12 - 12) =     24.59251  eV     1   --> B_2  D_4  S_4  
     e( 13 - 13) =     25.45964  eV     1   --> A_1  D_1  S_1  
     e( 14 - 14) =     29.38772  eV     1   --> A_1  D_1  S_1  
     e( 15 - 15) =     31.81522  eV     1   --> A_1  D_1  S_1  
     e( 16 - 16) =     32.11892  eV     1   --> B_2  D_4  S_4  
     e( 17 - 17) =     38.22093  eV     1   --> A_1  D_1  S_1  
     e( 18 - 18) =     39.09683  eV     1   --> B_1  D_3  S_3  
     e( 19 - 19) =     39.99589  eV     1   --> B_1  D_3  S_3  
     e( 20 - 20) =     40.93182  eV     1   --> A_1  D_1  S_1  

 **************************************************************************

 **************************************************************************

                    xk=(   0.00000,   0.57735,   0.00000  )

     point group D_2h (mmm) 
     there are  8 classes
     the character table:

       E     C2    C2'   C2''  i     s_v   s_v'  s_v''
A_g    1.00  1.00  1.00  1.00  1.00  1.00  1.00  1.00
B_1g   1.00  1.00 -1.00 -1.00  1.00  1.00 -1.00 -1.00
B_2g   1.00 -1.00  1.00 -1.00  1.00 -1.00  1.00 -1.00
B_3g   1.00 -1.00 -1.00  1.00  1.00 -1.00 -1.00  1.00
A_u    1.00  1.00  1.00  1.00 -1.00 -1.00 -1.00 -1.00
B_1u   1.00  1.00 -1.00 -1.00 -1.00 -1.00  1.00  1.00
B_2u   1.00 -1.00  1.00 -1.00 -1.00  1.00 -1.00  1.00
B_3u   1.00 -1.00 -1.00  1.00 -1.00  1.00  1.00 -1.00

     the symmetry operations in each class and the name of the first element:

     E        1
                                                                 
     C2       2
                                                                 
     C2'      4
                                                                 
     C2''     3
                                                                 
     i        5
                                                                 
     s_v      6
                                                                 
     s_v'     8
                                                                 
     s_v''    7
                                                                 

     Band symmetry, D_2h (mmm)  point group:

     e(  1 -  1) =    -38.98695  eV     1   --> A_g            
     e(  2 -  2) =    -13.81829  eV     1   --> B_3u           
     e(  3 -  3) =    -13.20022  eV     1   --> B_1u           
     e(  4 -  4) =    -13.07901  eV     1   --> B_2u           
     e(  5 -  5) =     10.73180  eV     1   --> A_g            
     e(  6 -  6) =     12.18038  eV     1   --> B_3u           
     e(  7 -  7) =     16.02344  eV     1   --> B_2g           
     e(  8 -  8) =     16.79114  eV     1   --> A_g            
     e(  9 -  9) =     17.82024  eV     1   --> B_2u           
     e( 10 - 10) =     21.97546  eV     1   --> B_3g           
     e( 11 - 11) =     24.53721  eV     1   --> B_1g           
     e( 12 - 12) =     24.58871  eV     1   --> B_1u           
     e( 13 - 13) =     25.48020  eV     1   --> A_g            
     e( 14 - 14) =     29.37286  eV     1   --> B_3u           
     e( 15 - 15) =     31.80818  eV     1   --> A_g            
     e( 16 - 16) =     32.13308  eV     1   --> B_2g           
     e( 17 - 17) =     38.25332  eV     1   --> A_g            
     e( 18 - 18) =     39.13625  eV     1   --> B_1g           
     e( 19 - 19) =     39.97454  eV     1   --> B_2u           
     e( 20 - 20) =     40.90922  eV     1   --> B_3u           

 **************************************************************************

 **************************************************************************

                    xk=(   0.01667,   0.57735,   0.00000  )

     point group C_2v (mm2) 
     there are  4 classes
     the character table:

       E     C2    s_v   s_v' 
A_1    1.00  1.00  1.00  1.00
A_2    1.00  1.00 -1.00 -1.00
B_1    1.00 -1.00  1.00 -1.00
B_2    1.00 -1.00 -1.00  1.00

     the symmetry operations in each class and the name of the first element:

     E        1
                                                                 
     C2       2
                                                                 
     s_v      4
                                                                 
     s_v'     3
                                                                 

     Band symmetry, C_2v (mm2)  point group:

     e(  1 -  1) =    -38.98685  eV     1   --> A_1  D_1  S_1  
     e(  2 -  2) =    -13.81747  eV     1   --> B_2  D_4  S_4  
     e(  3 -  3) =    -13.20010  eV     1   --> B_1  D_3  S_3  
     e(  4 -  4) =    -13.08077  eV     1   --> A_1  D_1  S_1  
     e(  5 -  5) =     10.73769  eV     1   --> A_1  D_1  S_1  
     e(  6 -  6) =     12.18206  eV     1   --> B_2  D_4  S_4  
     e(  7 -  7) =     16.02761  eV     1   --> A_2  D_2  S_2  
     e(  8 -  8) =     16.75093  eV     1   --> A_1  D_1  S_1  
     e(  9 -  9) =     17.86018  eV     1   --> A_1  D_1  S_1  
     e( 10 - 10) =     21.92674  eV     1   --> B_1  D_3  S_3  
     e( 11 - 11) =     24.51915  eV     1   --> B_2  D_4  S_4  
     e( 12 - 12) =     24.64483  eV     1   --> B_1  D_3  S_3  
     e( 13 - 13) =     25.47191  eV     1   --> A_1  D_1  S_1  
     e( 14 - 14) =     29.39868  eV     1   --> B_2  D_4  S_4  
     e( 15 - 15) =     31.82372  eV     1   --> A_1  D_1  S_1  
     e( 16 - 16) =     32.12827  eV     1   --> A_2  D_2  S_2  
     e( 17 - 17) =     38.22993  eV     1   --> A_1  D_1  S_1  
     e( 18 - 18) =     39.13259  eV     1   --> B_2  D_4  S_4  
     e( 19 - 19) =     39.98952  eV     1   --> A_1  D_1  S_1  
     e( 20 - 20) =     40.91879  eV     1   --> B_2  D_4  S_4  

 **************************************************************************

 **************************************************************************

                    xk=(   0.03333,   0.57735,   0.00000  )

     Band symmetry, C_2v (mm2)  point group:

     e(  1 -  1) =    -38.98659  eV     1   --> A_1  D_1  S_1  
     e(  2 -  2) =    -13.81502  eV     1   --> B_2  D_4  S_4  
     e(  3 -  3) =    -13.19975  eV     1   --> B_1  D_3  S_3  
     e(  4 -  4) =    -13.08604  eV     1   --> A_1  D_1  S_1  
     e(  5 -  5) =     10.75502  eV     1   --> A_1  D_1  S_1  
     e(  6 -  6) =     12.18597  eV     1   --> B_2  D_4  S_4  
     e(  7 -  7) =     16.04012  eV     1   --> A_2  D_2  S_2  
     e(  8 -  8) =     16.64415  eV     1   --> A_1  D_1  S_1  
     e(  9 -  9) =     17.96492  eV     1   --> A_1  D_1  S_1  
     e( 10 - 10) =     21.79174  eV     1   --> B_1  D_3  S_3  
     e( 11 - 11) =     24.46602  eV     1   --> B_2  D_4  S_4  
     e( 12 - 12) =     24.80200  eV     1   --> B_1  D_3  S_3  
     e( 13 - 13) =     25.44689  eV     1   --> A_1  D_1  S_1  
     e( 14 - 14) =     29.47478  eV     1   --> B_2  D_4  S_4  
     e( 15 - 15) =     31.87020  eV     1   --> A_1  D_1  S_1  
     e( 16 - 16) =     32.11367  eV     1   --> A_2  D_2  S_2  
     e( 17 - 17) =     38.16292  eV     1   --> A_1  D_1  S_1  
     e( 18 - 18) =     39.10425  eV     1   --> B_2  D_4  S_4  
     e( 19 - 19) =     40.03069  eV     1   --> A_1  D_1  S_1  
     e( 20 - 20) =     40.94689  eV     1   --> B_2  D_4  S_4  

 **************************************************************************

 **************************************************************************

                    xk=(   0.05000,   0.57735,   0.00000  )

     Band symmetry, C_2v (mm2)  point group:

     e(  1 -  1) =    -38.98615  eV     1   --> A_1  D_1  S_1  
     e(  2 -  2) =    -13.81095  eV     1   --> B_2  D_4  S_4  
     e(  3 -  3) =    -13.19917  eV     1   --> B_1  D_3  S_3  
     e(  4 -  4) =    -13.09475  eV     1   --> A_1  D_1  S_1  
     e(  5 -  5) =     10.78380  eV     1   --> A_1  D_1  S_1  
     e(  6 -  6) =     12.19253  eV     1   --> B_2  D_4  S_4  
     e(  7 -  7) =     16.06094  eV     1   --> A_2  D_2  S_2  
     e(  8 -  8) =     16.49532  eV     1   --> A_1  D_1  S_1  
     e(  9 -  9) =     18.11070  eV     1   --> A_1  D_1  S_1  
     e( 10 - 10) =     21.59477  eV     1   --> B_1  D_3  S_3  
     e( 11 - 11) =     24.38134  eV     1   --> B_2  D_4  S_4  
     e( 12 - 12) =     25.03572  eV     1   --> B_1  D_3  S_3  
     e( 13 - 13) =     25.40540  eV     1   --> A_1  D_1  S_1  
     e( 14 - 14) =     29.59767  eV     1   --> B_2  D_4  S_4  
     e( 15 - 15) =     31.94731  eV     1   --> A_1  D_1  S_1  
     e( 16 - 16) =     32.08946  eV     1   --> A_2  D_2  S_2  
     e( 17 - 17) =     38.06014  eV     1   --> A_1  D_1  S_1  
     e( 18 - 18) =     39.05895  eV     1   --> B_2  D_4  S_4  
     e( 19 - 19) =     40.08906  eV     1   --> A_1  D_1  S_1  
     e( 20 - 20) =     40.99185  eV     1   --> B_2  D_4  S_4  

 **************************************************************************

 **************************************************************************

                    xk=(   0.06667,   0.57735,   0.00000  )

     Band symmetry, C_2v (mm2)  point group:

     e(  1 -  1) =    -38.98555  eV     1   --> A_1  D_1  S_1  
     e(  2 -  2) =    -13.80527  eV     1   --> B_2  D_4  S_4  
     e(  3 -  3) =    -13.19838  eV     1   --> B_1  D_3  S_3  
     e(  4 -  4) =    -13.10679  eV     1   --> A_1  D_1  S_1  
     e(  5 -  5) =     10.82385  eV     1   --> A_1  D_1  S_1  
     e(  6 -  6) =     12.20135  eV     1   --> B_2  D_4  S_4  
     e(  7 -  7) =     16.09002  eV     1   --> A_2  D_2  S_2  
     e(  8 -  8) =     16.32221  eV     1   --> A_1  D_1  S_1  
     e(  9 -  9) =     18.28144  eV     1   --> A_1  D_1  S_1  
     e( 10 - 10) =     21.35922  eV     1   --> B_1  D_3  S_3  
     e( 11 - 11) =     24.26991  eV     1   --> B_2  D_4  S_4  
     e( 12 - 12) =     25.32314  eV     1   --> B_1  D_3  S_3  
     e( 13 - 13) =     25.34750  eV     1   --> A_1  D_1  S_1  
     e( 14 - 14) =     29.76200  eV     1   --> B_2  D_4  S_4  
     e( 15 - 15) =     32.05444  eV     1   --> A_1  D_1  S_1  
     e( 16 - 16) =     32.05555  eV     1   --> A_2  D_2  S_2  
     e( 17 - 17) =     37.92956  eV     1   --> A_1  D_1  S_1  
     e( 18 - 18) =     38.99613  eV     1   --> B_2  D_4  S_4  
     e( 19 - 19) =     40.15394  eV     1   --> A_1  D_1  S_1  
     e( 20 - 20) =     41.05209  eV     1   --> B_2  D_4  S_4  

 **************************************************************************

 **************************************************************************

                    xk=(   0.08333,   0.57735,   0.00000  )

     Band symmetry, C_2v (mm2)  point group:

     e(  1 -  1) =    -38.98480  eV     1   --> A_1  D_1  S_1  
     e(  2 -  2) =    -13.79800  eV     1   --> B_2  D_4  S_4  
     e(  3 -  3) =    -13.19738  eV     1   --> B_1  D_3  S_3  
     e(  4 -  4) =    -13.12198  eV     1   --> A_1  D_1  S_1  
     e(  5 -  5) =     10.87504  eV     1   --> A_1  D_1  S_1  
     e(  6 -  6) =     12.21320  eV     1   --> B_2  D_4  S_4  
     e(  7 -  7) =     16.12744  eV     1   --> A_2  D_2  S_2  
     e(  8 -  8) =     16.13312  eV     1   --> A_1  D_1  S_1  
     e(  9 -  9) =     18.46699  eV     1   --> A_1  D_1  S_1  
     e( 10 - 10) =     21.10179  eV     1   --> B_1  D_3  S_3  
     e( 11 - 11) =     24.13735  eV     1   --> B_2  D_4  S_4  
     e( 12 - 12) =     25.27400  eV     1   --> A_1  D_1  S_1  
     e( 13 - 13) =     25.64542  eV     1   --> B_1  D_3  S_3  
     e( 14 - 14) =     29.96280  eV     1   --> B_2  D_4  S_4  
     e( 15 - 15) =     32.01264  eV     1   --> A_2  D_2  S_2  
     e( 16 - 16) =     32.19073  eV     1   --> A_1  D_1  S_1  
     e( 17 - 17) =     37.78105  eV     1   --> A_1  D_1  S_1  
     e( 18 - 18) =     38.92418  eV     1   --> B_2  D_4  S_4  
     e( 19 - 19) =     40.21409  eV     1   --> A_1  D_1  S_1  
     e( 20 - 20) =     41.12315  eV     1   --> B_2  D_4  S_4  

 **************************************************************************

 **************************************************************************

                    xk=(   0.10000,   0.57735,   0.00000  )

     Band symmetry, C_2v (mm2)  point group:

     e(  1 -  1) =    -38.98390  eV     1   --> A_1  D_1  S_1  
     e(  2 -  2) =    -13.78917  eV     1   --> B_2  D_4  S_4  
     e(  3 -  3) =    -13.19621  eV     1   --> B_1  D_3  S_3  
     e(  4 -  4) =    -13.14014  eV     1   --> A_1  D_1  S_1  
     e(  5 -  5) =     10.93711  eV     1   --> A_1  D_1  S_1  
     e(  6 -  6) =     12.22787  eV     1   --> B_2  D_4  S_4  
     e(  7 -  7) =     15.93355  eV     1   --> A_1  D_1  S_1  
     e(  8 -  8) =     16.17311  eV     1   --> A_2  D_2  S_2  
     e(  9 -  9) =     18.66407  eV     1   --> A_1  D_1  S_1  
     e( 10 - 10) =     20.83344  eV     1   --> B_1  D_3  S_3  
     e( 11 - 11) =     23.98894  eV     1   --> B_2  D_4  S_4  
     e( 12 - 12) =     25.18526  eV     1   --> A_1  D_1  S_1  
     e( 13 - 13) =     25.99193  eV     1   --> B_1  D_3  S_3  
     e( 14 - 14) =     30.19425  eV     1   --> B_2  D_4  S_4  
     e( 15 - 15) =     31.96077  eV     1   --> A_2  D_2  S_2  
     e( 16 - 16) =     32.35530  eV     1   --> A_1  D_1  S_1  
     e( 17 - 17) =     37.61963  eV     1   --> A_1  D_1  S_1  
     e( 18 - 18) =     38.84522  eV     1   --> B_2  D_4  S_4  
     e( 19 - 19) =     40.26038  eV     1   --> A_1  D_1  S_1  
     e( 20 - 20) =     41.01785  eV     1   --> B_1  D_3  S_3  

 **************************************************************************

 **************************************************************************

                    xk=(   0.11667,   0.57735,   0.00000  )

     Band symmetry, C_2v (mm2)  point group:

     e(  1 -  1) =    -38.98290  eV     1   --> A_1  D_1  S_1  
     e(  2 -  2) =    -13.77883  eV     1   --> B_2  D_4  S_4  
     e(  3 -  3) =    -13.19488  eV     1   --> B_1  D_3  S_3  
     e(  4 -  4) =    -13.16102  eV     1   --> A_1  D_1  S_1  
     e(  5 -  5) =     11.00969  eV     1   --> A_1  D_1  S_1  
     e(  6 -  6) =     12.24510  eV     1   --> B_2  D_4  S_4  
     e(  7 -  7) =     15.72588  eV     1   --> A_1  D_1  S_1  
     e(  8 -  8) =     16.22700  eV     1   --> A_2  D_2  S_2  
     e(  9 -  9) =     18.87057  eV     1   --> A_1  D_1  S_1  
     e( 10 - 10) =     20.56111  eV     1   --> B_1  D_3  S_3  
[...]
     e(  9 -  9) =     19.06371  eV     1   --> B_1  D_3  S_3  
     e( 10 - 10) =     21.07195  eV     1   --> A_1  D_1  S_1  
     e( 11 - 11) =     22.65452  eV     1   --> A_1  D_1  S_1  
     e( 12 - 12) =     22.94091  eV     1   --> A_2  D_2  S_2  
     e( 13 - 13) =     23.37691  eV     1   --> B_2  D_4  S_4  
     e( 14 - 14) =     29.37458  eV     1   --> B_1  D_3  S_3  
     e( 15 - 15) =     33.05396  eV     1   --> B_2  D_4  S_4  
     e( 16 - 16) =     33.33332  eV     1   --> A_2  D_2  S_2  
     e( 17 - 17) =     35.43233  eV     1   --> A_2  D_2  S_2  
     e( 18 - 18) =     37.10636  eV     1   --> B_2  D_4  S_4  
     e( 19 - 19) =     38.78128  eV     1   --> A_1  D_1  S_1  
     e( 20 - 20) =     41.92019  eV     1   --> A_1  D_1  S_1  

 **************************************************************************

 **************************************************************************

                    xk=(   0.08333,   0.14434,   0.46352  )

     Band symmetry, C_2v (mm2)  point group:

     e(  1 -  1) =    -39.06188  eV     1   --> A_1  D_1  S_1  
     e(  2 -  2) =    -13.76585  eV     1   --> B_2  D_4  S_4  
     e(  3 -  3) =    -13.00221  eV     1   --> A_1  D_1  S_1  
     e(  4 -  4) =    -12.86302  eV     1   --> B_1  D_3  S_3  
     e(  5 -  5) =      9.78353  eV     1   --> B_2  D_4  S_4  
     e(  6 -  6) =     13.40178  eV     1   --> A_1  D_1  S_1  
     e(  7 -  7) =     17.46324  eV     1   --> A_2  D_2  S_2  
     e(  8 -  8) =     17.79041  eV     1   --> B_2  D_4  S_4  
     e(  9 -  9) =     19.22931  eV     1   --> B_1  D_3  S_3  
     e( 10 - 10) =     20.93983  eV     1   --> A_1  D_1  S_1  
     e( 11 - 11) =     22.59847  eV     1   --> A_1  D_1  S_1  
     e( 12 - 12) =     22.71552  eV     1   --> A_2  D_2  S_2  
     e( 13 - 13) =     23.08468  eV     1   --> B_2  D_4  S_4  
     e( 14 - 14) =     29.13248  eV     1   --> B_1  D_3  S_3  
     e( 15 - 15) =     33.20420  eV     1   --> B_2  D_4  S_4  
     e( 16 - 16) =     33.30658  eV     1   --> A_2  D_2  S_2  
     e( 17 - 17) =     35.29104  eV     1   --> A_2  D_2  S_2  
     e( 18 - 18) =     36.82316  eV     1   --> B_2  D_4  S_4  
     e( 19 - 19) =     39.04205  eV     1   --> A_1  D_1  S_1  
     e( 20 - 20) =     42.28557  eV     1   --> A_1  D_1  S_1  

 **************************************************************************

 **************************************************************************

                    xk=(   0.07500,   0.12990,   0.46352  )

     Band symmetry, C_2v (mm2)  point group:

     e(  1 -  1) =    -39.06626  eV     1   --> A_1  D_1  S_1  
     e(  2 -  2) =    -13.77341  eV     1   --> B_2  D_4  S_4  
     e(  3 -  3) =    -12.97008  eV     1   --> A_1  D_1  S_1  
     e(  4 -  4) =    -12.85447  eV     1   --> B_1  D_3  S_3  
     e(  5 -  5) =      9.78036  eV     1   --> B_2  D_4  S_4  
     e(  6 -  6) =     13.27394  eV     1   --> A_1  D_1  S_1  
     e(  7 -  7) =     17.73269  eV     1   --> A_2  D_2  S_2  
     e(  8 -  8) =     17.99396  eV     1   --> B_2  D_4  S_4  
     e(  9 -  9) =     19.39274  eV     1   --> B_1  D_3  S_3  
     e( 10 - 10) =     20.81943  eV     1   --> A_1  D_1  S_1  
     e( 11 - 11) =     22.48696  eV     1   --> A_2  D_2  S_2  
     e( 12 - 12) =     22.54753  eV     1   --> A_1  D_1  S_1  
     e( 13 - 13) =     22.79262  eV     1   --> B_2  D_4  S_4  
     e( 14 - 14) =     28.89217  eV     1   --> B_1  D_3  S_3  
     e( 15 - 15) =     33.26653  eV     1   --> A_2  D_2  S_2  
     e( 16 - 16) =     33.35439  eV     1   --> B_2  D_4  S_4  
     e( 17 - 17) =     35.18059  eV     1   --> A_2  D_2  S_2  
     e( 18 - 18) =     36.55694  eV     1   --> B_2  D_4  S_4  
     e( 19 - 19) =     39.27723  eV     1   --> A_1  D_1  S_1  
     e( 20 - 20) =     42.66200  eV     1   --> A_1  D_1  S_1  

 **************************************************************************

 **************************************************************************

                    xk=(   0.06667,   0.11547,   0.46352  )

     Band symmetry, C_2v (mm2)  point group:

     e(  1 -  1) =    -39.07027  eV     1   --> A_1  D_1  S_1  
     e(  2 -  2) =    -13.78034  eV     1   --> B_2  D_4  S_4  
     e(  3 -  3) =    -12.94026  eV     1   --> A_1  D_1  S_1  
     e(  4 -  4) =    -12.84683  eV     1   --> B_1  D_3  S_3  
     e(  5 -  5) =      9.77780  eV     1   --> B_2  D_4  S_4  
     e(  6 -  6) =     13.15743  eV     1   --> A_1  D_1  S_1  
     e(  7 -  7) =     18.00326  eV     1   --> A_2  D_2  S_2  
     e(  8 -  8) =     18.20593  eV     1   --> B_2  D_4  S_4  
     e(  9 -  9) =     19.55166  eV     1   --> B_1  D_3  S_3  
     e( 10 - 10) =     20.71105  eV     1   --> A_1  D_1  S_1  
     e( 11 - 11) =     22.25397  eV     1   --> A_2  D_2  S_2  
     e( 12 - 12) =     22.50115  eV     1   --> B_2  D_4  S_4  
     e( 13 - 13) =     22.50168  eV     1   --> A_1  D_1  S_1  
     e( 14 - 14) =     28.65845  eV     1   --> B_1  D_3  S_3  
     e( 15 - 15) =     33.21544  eV     1   --> A_2  D_2  S_2  
     e( 16 - 16) =     33.50320  eV     1   --> B_2  D_4  S_4  
     e( 17 - 17) =     35.09672  eV     1   --> A_2  D_2  S_2  
     e( 18 - 18) =     36.30623  eV     1   --> B_2  D_4  S_4  
     e( 19 - 19) =     39.48564  eV     1   --> A_1  D_1  S_1  
     e( 20 - 20) =     43.04566  eV     1   --> A_1  D_1  S_1  

 **************************************************************************

 **************************************************************************

                    xk=(   0.05833,   0.10104,   0.46352  )

     Band symmetry, C_2v (mm2)  point group:

     e(  1 -  1) =    -39.07388  eV     1   --> A_1  D_1  S_1  
     e(  2 -  2) =    -13.78658  eV     1   --> B_2  D_4  S_4  
     e(  3 -  3) =    -12.91307  eV     1   --> A_1  D_1  S_1  
     e(  4 -  4) =    -12.84011  eV     1   --> B_1  D_3  S_3  
     e(  5 -  5) =      9.77622  eV     1   --> B_2  D_4  S_4  
     e(  6 -  6) =     13.05296  eV     1   --> A_1  D_1  S_1  
     e(  7 -  7) =     18.27437  eV     1   --> A_2  D_2  S_2  
     e(  8 -  8) =     18.42594  eV     1   --> B_2  D_4  S_4  
     e(  9 -  9) =     19.70336  eV     1   --> B_1  D_3  S_3  
     e( 10 - 10) =     20.61496  eV     1   --> A_1  D_1  S_1  
     e( 11 - 11) =     22.01637  eV     1   --> A_2  D_2  S_2  
     e( 12 - 12) =     22.21069  eV     1   --> B_2  D_4  S_4  
     e( 13 - 13) =     22.46098  eV     1   --> A_1  D_1  S_1  
     e( 14 - 14) =     28.43503  eV     1   --> B_1  D_3  S_3  
     e( 15 - 15) =     33.15679  eV     1   --> A_2  D_2  S_2  
     e( 16 - 16) =     33.65046  eV     1   --> B_2  D_4  S_4  
     e( 17 - 17) =     35.03714  eV     1   --> A_2  D_2  S_2  
     e( 18 - 18) =     36.07187  eV     1   --> B_2  D_4  S_4  
     e( 19 - 19) =     39.66666  eV     1   --> A_1  D_1  S_1  
     e( 20 - 20) =     43.43329  eV     1   --> A_1  D_1  S_1  

 **************************************************************************

 **************************************************************************

                    xk=(   0.05000,   0.08660,   0.46352  )

     Band symmetry, C_2v (mm2)  point group:

     e(  1 -  1) =    -39.07707  eV     1   --> A_1  D_1  S_1  
     e(  2 -  2) =    -13.79209  eV     1   --> B_2  D_4  S_4  
     e(  3 -  3) =    -12.88882  eV     1   --> A_1  D_1  S_1  
     e(  4 -  4) =    -12.83430  eV     1   --> B_1  D_3  S_3  
     e(  5 -  5) =      9.77475  eV     1   --> B_2  D_4  S_4  
     e(  6 -  6) =     12.96122  eV     1   --> A_1  D_1  S_1  
     e(  7 -  7) =     18.54553  eV     1   --> A_2  D_2  S_2  
     e(  8 -  8) =     18.65327  eV     1   --> B_2  D_4  S_4  
     e(  9 -  9) =     19.84492  eV     1   --> B_1  D_3  S_3  
     e( 10 - 10) =     20.53135  eV     1   --> A_1  D_1  S_1  
     e( 11 - 11) =     21.77570  eV     1   --> A_2  D_2  S_2  
     e( 12 - 12) =     21.92279  eV     1   --> B_2  D_4  S_4  
     e( 13 - 13) =     22.42562  eV     1   --> A_1  D_1  S_1  
     e( 14 - 14) =     28.22989  eV     1   --> B_1  D_3  S_3  
     e( 15 - 15) =     33.09692  eV     1   --> A_2  D_2  S_2  
     e( 16 - 16) =     33.79614  eV     1   --> B_2  D_4  S_4  
     e( 17 - 17) =     34.99506  eV     1   --> A_2  D_2  S_2  
     e( 18 - 18) =     35.85141  eV     1   --> B_2  D_4  S_4  
     e( 19 - 19) =     39.82410  eV     1   --> A_1  D_1  S_1  
     e( 20 - 20) =     43.82162  eV     1   --> A_1  D_1  S_1  

 **************************************************************************

 **************************************************************************

                    xk=(   0.04167,   0.07217,   0.46352  )

     Band symmetry, C_2v (mm2)  point group:

     e(  1 -  1) =    -39.07982  eV     1   --> A_1  D_1  S_1  
     e(  2 -  2) =    -13.79683  eV     1   --> B_2  D_4  S_4  
     e(  3 -  3) =    -12.86781  eV     1   --> A_1  D_1  S_1  
     e(  4 -  4) =    -12.82939  eV     1   --> B_1  D_3  S_3  
     e(  5 -  5) =      9.77372  eV     1   --> B_2  D_4  S_4  
     e(  6 -  6) =     12.88251  eV     1   --> A_1  D_1  S_1  
     e(  7 -  7) =     18.81533  eV     1   --> A_2  D_2  S_2  
     e(  8 -  8) =     18.88708  eV     1   --> B_2  D_4  S_4  
     e(  9 -  9) =     19.97297  eV     1   --> B_1  D_3  S_3  
     e( 10 - 10) =     20.46038  eV     1   --> A_1  D_1  S_1  
     e( 11 - 11) =     21.53093  eV     1   --> A_2  D_2  S_2  
     e( 12 - 12) =     21.63719  eV     1   --> B_2  D_4  S_4  
     e( 13 - 13) =     22.39544  eV     1   --> A_1  D_1  S_1  
     e( 14 - 14) =     28.04360  eV     1   --> B_1  D_3  S_3  
     e( 15 - 15) =     33.03744  eV     1   --> A_2  D_2  S_2  
     e( 16 - 16) =     33.93967  eV     1   --> B_2  D_4  S_4  
     e( 17 - 17) =     34.96685  eV     1   --> A_2  D_2  S_2  
     e( 18 - 18) =     35.64591  eV     1   --> B_2  D_4  S_4  
     e( 19 - 19) =     39.95361  eV     1   --> A_1  D_1  S_1  
     e( 20 - 20) =     44.20440  eV     1   --> B_1  D_3  S_3  

 **************************************************************************

 **************************************************************************

                    xk=(   0.03333,   0.05774,   0.46352  )

     Band symmetry, C_2v (mm2)  point group:

     e(  1 -  1) =    -39.08210  eV     1   --> A_1  D_1  S_1  
     e(  2 -  2) =    -13.80076  eV     1   --> B_2  D_4  S_4  
     e(  3 -  3) =    -12.85026  eV     1   --> A_1  D_1  S_1  
     e(  4 -  4) =    -12.82539  eV     1   --> B_1  D_3  S_3  
     e(  5 -  5) =      9.77278  eV     1   --> B_2  D_4  S_4  
     e(  6 -  6) =     12.81758  eV     1   --> A_1  D_1  S_1  
     e(  7 -  7) =     19.08303  eV     1   --> A_2  D_2  S_2  
     e(  8 -  8) =     19.12587  eV     1   --> B_2  D_4  S_4  
     e(  9 -  9) =     20.08418  eV     1   --> B_1  D_3  S_3  
     e( 10 - 10) =     20.40217  eV     1   --> A_1  D_1  S_1  
     e( 11 - 11) =     21.28396  eV     1   --> A_2  D_2  S_2  
     e( 12 - 12) =     21.35553  eV     1   --> B_2  D_4  S_4  
     e( 13 - 13) =     22.37077  eV     1   --> A_1  D_1  S_1  
     e( 14 - 14) =     27.88433  eV     1   --> B_1  D_3  S_3  
     e( 15 - 15) =     32.98489  eV     1   --> A_2  D_2  S_2  
     e( 16 - 16) =     34.08157  eV     1   --> B_2  D_4  S_4  
     e( 17 - 17) =     34.94832  eV     1   --> A_2  D_2  S_2  
     e( 18 - 18) =     35.45305  eV     1   --> B_2  D_4  S_4  
     e( 19 - 19) =     40.06137  eV     1   --> A_1  D_1  S_1  
     e( 20 - 20) =     44.57575  eV     1   --> B_1  D_3  S_3  

 **************************************************************************

 **************************************************************************

                    xk=(   0.02500,   0.04330,   0.46352  )

     Band symmetry, C_2v (mm2)  point group:

     e(  1 -  1) =    -39.08389  eV     1   --> A_1  D_1  S_1  
     e(  2 -  2) =    -13.80384  eV     1   --> B_2  D_4  S_4  
     e(  3 -  3) =    -12.83640  eV     1   --> A_1  D_1  S_1  
     e(  4 -  4) =    -12.82228  eV     1   --> B_1  D_3  S_3  
     e(  5 -  5) =      9.77200  eV     1   --> B_2  D_4  S_4  
     e(  6 -  6) =     12.76655  eV     1   --> A_1  D_1  S_1  
     e(  7 -  7) =     19.34608  eV     1   --> A_2  D_2  S_2  
     e(  8 -  8) =     19.36742  eV     1   --> B_2  D_4  S_4  
     e(  9 -  9) =     20.17511  eV     1   --> B_1  D_3  S_3  
     e( 10 - 10) =     20.35682  eV     1   --> A_1  D_1  S_1  
     e( 11 - 11) =     21.03775  eV     1   --> A_2  D_2  S_2  
     e( 12 - 12) =     21.08083  eV     1   --> B_2  D_4  S_4  
     e( 13 - 13) =     22.35148  eV     1   --> A_1  D_1  S_1  
     e( 14 - 14) =     27.75481  eV     1   --> B_1  D_3  S_3  
     e( 15 - 15) =     32.94015  eV     1   --> A_2  D_2  S_2  
     e( 16 - 16) =     34.22080  eV     1   --> B_2  D_4  S_4  
     e( 17 - 17) =     34.93718  eV     1   --> A_2  D_2  S_2  
     e( 18 - 18) =     35.27519  eV     1   --> B_2  D_4  S_4  
     e( 19 - 19) =     40.14507  eV     1   --> A_1  D_1  S_1  
     e( 20 - 20) =     44.93942  eV     1   --> B_1  D_3  S_3  

 **************************************************************************

 **************************************************************************

                    xk=(   0.01667,   0.02887,   0.46352  )

     Band symmetry, C_2v (mm2)  point group:

     e(  1 -  1) =    -39.08517  eV     1   --> A_1  D_1  S_1  
     e(  2 -  2) =    -13.80606  eV     1   --> B_2  D_4  S_4  
     e(  3 -  3) =    -12.82638  eV     1   --> A_1  D_1  S_1  
     e(  4 -  4) =    -12.82006  eV     1   --> B_1  D_3  S_3  
     e(  5 -  5) =      9.77162  eV     1   --> B_2  D_4  S_4  
     e(  6 -  6) =     12.73015  eV     1   --> A_1  D_1  S_1  
     e(  7 -  7) =     19.59869  eV     1   --> A_2  D_2  S_2  
     e(  8 -  8) =     19.60601  eV     1   --> B_2  D_4  S_4  
     e(  9 -  9) =     20.24268  eV     1   --> B_1  D_3  S_3  
     e( 10 - 10) =     20.32438  eV     1   --> A_1  D_1  S_1  
     e( 11 - 11) =     20.79729  eV     1   --> A_2  D_2  S_2  
     e( 12 - 12) =     20.81857  eV     1   --> B_2  D_4  S_4  
     e( 13 - 13) =     22.33777  eV     1   --> A_1  D_1  S_1  
     e( 14 - 14) =     27.66091  eV     1   --> B_1  D_3  S_3  
     e( 15 - 15) =     32.90767  eV     1   --> A_2  D_2  S_2  
     e( 16 - 16) =     34.35391  eV     1   --> B_2  D_4  S_4  
     e( 17 - 17) =     34.93085  eV     1   --> A_2  D_2  S_2  
     e( 18 - 18) =     35.11505  eV     1   --> B_2  D_4  S_4  
     e( 19 - 19) =     40.20568  eV     1   --> A_1  D_1  S_1  
     e( 20 - 20) =     45.27553  eV     1   --> B_1  D_3  S_3  

 **************************************************************************

 **************************************************************************

                    xk=(   0.00833,   0.01443,   0.46352  )

     Band symmetry, C_2v (mm2)  point group:

     e(  1 -  1) =    -39.08595  eV     1   --> A_1  D_1  S_1  
     e(  2 -  2) =    -13.80740  eV     1   --> B_2  D_4  S_4  
     e(  3 -  3) =    -12.82031  eV     1   --> A_1  D_1  S_1  
     e(  4 -  4) =    -12.81873  eV     1   --> B_1  D_3  S_3  
     e(  5 -  5) =      9.77132  eV     1   --> B_2  D_4  S_4  
     e(  6 -  6) =     12.70806  eV     1   --> A_1  D_1  S_1  
     e(  7 -  7) =     19.82156  eV     1   --> A_2  D_2  S_2  
     e(  8 -  8) =     19.82231  eV     1   --> B_2  D_4  S_4  
     e(  9 -  9) =     20.28433  eV     1   --> B_1  D_3  S_3  
     e( 10 - 10) =     20.30490  eV     1   --> A_1  D_1  S_1  
     e( 11 - 11) =     20.58172  eV     1   --> A_2  D_2  S_2  
     e( 12 - 12) =     20.58806  eV     1   --> B_2  D_4  S_4  
     e( 13 - 13) =     22.32948  eV     1   --> A_1  D_1  S_1  
     e( 14 - 14) =     27.60220  eV     1   --> B_1  D_3  S_3  
     e( 15 - 15) =     32.88710  eV     1   --> A_2  D_2  S_2  
     e( 16 - 16) =     34.46781  eV     1   --> B_2  D_4  S_4  
     e( 17 - 17) =     34.92771  eV     1   --> A_2  D_2  S_2  
     e( 18 - 18) =     34.98491  eV     1   --> B_2  D_4  S_4  
     e( 19 - 19) =     40.24145  eV     1   --> A_1  D_1  S_1  
     e( 20 - 20) =     45.53915  eV     1   --> A_1  D_1  S_1  

 **************************************************************************

 **************************************************************************

                    xk=(   0.00000,   0.00000,   0.46352  )

     point group D_6h(6/mmm)
     there are 12 classes
     the character table:

       E     2C6   2C3   C2    3C2'  3C2'' i     2S3   2S6   s_h   3s_d  3s_v 
A_1g   1.00  1.00  1.00  1.00  1.00  1.00  1.00  1.00  1.00  1.00  1.00  1.00
A_2g   1.00  1.00  1.00  1.00 -1.00 -1.00  1.00  1.00  1.00  1.00 -1.00 -1.00
B_1g   1.00 -1.00  1.00 -1.00  1.00 -1.00  1.00 -1.00  1.00 -1.00  1.00 -1.00
B_2g   1.00 -1.00  1.00 -1.00 -1.00  1.00  1.00 -1.00  1.00 -1.00 -1.00  1.00
E_1g   2.00  1.00 -1.00 -2.00  0.00  0.00  2.00  1.00 -1.00 -2.00  0.00  0.00
E_2g   2.00 -1.00 -1.00  2.00  0.00  0.00  2.00 -1.00 -1.00  2.00  0.00  0.00
A_1u   1.00  1.00  1.00  1.00  1.00  1.00 -1.00 -1.00 -1.00 -1.00 -1.00 -1.00
A_2u   1.00  1.00  1.00  1.00 -1.00 -1.00 -1.00 -1.00 -1.00 -1.00  1.00  1.00
B_1u   1.00 -1.00  1.00 -1.00  1.00 -1.00 -1.00  1.00 -1.00  1.00 -1.00  1.00
B_2u   1.00 -1.00  1.00 -1.00 -1.00  1.00 -1.00  1.00 -1.00  1.00  1.00 -1.00
E_1u   2.00  1.00 -1.00 -2.00  0.00  0.00 -2.00 -1.00  1.00  2.00  0.00  0.00
E_2u   2.00 -1.00 -1.00  2.00  0.00  0.00 -2.00  1.00  1.00 -2.00  0.00  0.00

     the symmetry operations in each class and the name of the first element:

     E        1
                                                                 
     2C6      5    6
                                                                 
     2C3      7    8
                                                                 
     C2       2
                                                                 
     3C2'     4   12   11
                                                                 
     3C2''    3    9   10
                                                                 
     i       13
                                                                 
     2S3     17   18
                                                                 
     2S6     19   20
                                                                 
     s_h     14
                                                                 
     3s_d    16   24   23
                                                                 
     3s_v    15   21   22
                                                                 

     Band symmetry, D_6h(6/mmm) point group:

     e(  1 -  1) =    -39.08619  eV     1   --> A_1g           
     e(  2 -  2) =    -13.80784  eV     1   --> A_2u           
     e(  3 -  4) =    -12.81828  eV     2   --> E_1u           
     e(  5 -  5) =      9.77164  eV     1   --> A_2u           
     e(  6 -  6) =     12.70080  eV     1   --> A_1g           
     e(  7 -  8) =     19.93329  eV     2   --> E_1g           
     e(  9 - 10) =     20.29841  eV     2   --> E_2g           
     e( 11 - 12) =     20.47471  eV     2   --> E_2u           
     e( 13 - 13) =     22.32675  eV     1   --> A_1g           
     e( 14 - 14) =     27.58264  eV     1   --> B_2u           
     e( 15 - 15) =     32.88276  eV     1   --> B_1g           
     e( 16 - 16) =     34.52080  eV     1   --> A_2u           
     e( 17 - 18) =     34.92795  eV     2   --> E_1g           
     e( 19 - 19) =     40.25340  eV     1   --> A_1g           
     e( 20 - 20) =     45.64753  eV     1   -->   ?

 **************************************************************************
 
     BANDS        :      5.98s CPU      6.44s WALL

 
   This run was terminated on:  13:10: 4  28Apr2022            

=------------------------------------------------------------------------------=
   JOB DONE.
=------------------------------------------------------------------------------=
