
     Program BANDS v.7.0 starts on 28Apr2022 at 17:18:26 

     This program is part of the open-source Quantum ESPRESSO suite
     for quantum simulation of materials; please cite
         "P. Giannozzi et al., J. Phys.:Condens. Matter 21 395502 (2009);
         "P. Giannozzi et al., J. Phys.:Condens. Matter 29 465901 (2017);
         "P. Giannozzi et al., J. Chem. Phys. 152 154105 (2020);
          URL http://www.quantum-espresso.org", 
     in publications or presentations arising from this work. More details at
     http://www.quantum-espresso.org/quote

     Parallel version (MPI), running on     8 processors

     MPI processes distributed on     1 nodes
     R & G space division:  proc/nbgrp/npool/nimage =       8
     2264 MiB available memory on the printing compute node when the environment starts
 

     Reading xml data from directory:

     ./tmp/mob2.save/

     IMPORTANT: XC functional enforced from input :
     Exchange-correlation= PBE
                           (   1   4   3   4   0   0   0)
     Any further DFT definition will be discarded
     Please, verify this is what you really want

 
     Parallelization info
     --------------------
     sticks:   dense  smooth     PW     G-vecs:    dense   smooth      PW
     Min          36      36     11                  532      532     101
     Max          37      37     12                  535      535     102
     Sum         295     295     91                 4277     4277     811
 
     Using Slab Decomposition
 
     Reading collected, re-writing distributed wavefunctions
     high-symmetry point:  0.0000 0.0000 0.0000   x coordinate   0.0000
     high-symmetry point:  0.0000 0.5774 0.0000   x coordinate   0.5774
     high-symmetry point:  0.3333 0.5774 0.0000   x coordinate   0.9107
     high-symmetry point:  0.0000 0.0000 0.0000   x coordinate   1.5774
     high-symmetry point:  0.0000 0.0000 0.4655   x coordinate   2.0429
     high-symmetry point:  0.0000 0.5774 0.4655   x coordinate   2.6202
     high-symmetry point:  0.3333 0.5774 0.4655   x coordinate   2.9535
     high-symmetry point:  0.0000 0.0000 0.4655   x coordinate   3.6202

     Plottable bands (eV) written to file mob2_bands.bands.gnu
     Bands written to file mob2_bands.bands

 **************************************************************************

                    xk=(   0.00000,   0.00000,   0.00000  )

     point group D_6h(6/mmm)
     there are 12 classes
     the character table:

       E     2C6   2C3   C2    3C2'  3C2'' i     2S3   2S6   s_h   3s_d  3s_v 
A_1g   1.00  1.00  1.00  1.00  1.00  1.00  1.00  1.00  1.00  1.00  1.00  1.00
A_2g   1.00  1.00  1.00  1.00 -1.00 -1.00  1.00  1.00  1.00  1.00 -1.00 -1.00
B_1g   1.00 -1.00  1.00 -1.00  1.00 -1.00  1.00 -1.00  1.00 -1.00  1.00 -1.00
B_2g   1.00 -1.00  1.00 -1.00 -1.00  1.00  1.00 -1.00  1.00 -1.00 -1.00  1.00
E_1g   2.00  1.00 -1.00 -2.00  0.00  0.00  2.00  1.00 -1.00 -2.00  0.00  0.00
E_2g   2.00 -1.00 -1.00  2.00  0.00  0.00  2.00 -1.00 -1.00  2.00  0.00  0.00
A_1u   1.00  1.00  1.00  1.00  1.00  1.00 -1.00 -1.00 -1.00 -1.00 -1.00 -1.00
A_2u   1.00  1.00  1.00  1.00 -1.00 -1.00 -1.00 -1.00 -1.00 -1.00  1.00  1.00
B_1u   1.00 -1.00  1.00 -1.00  1.00 -1.00 -1.00  1.00 -1.00  1.00 -1.00  1.00
B_2u   1.00 -1.00  1.00 -1.00 -1.00  1.00 -1.00  1.00 -1.00  1.00  1.00 -1.00
E_1u   2.00  1.00 -1.00 -2.00  0.00  0.00 -2.00 -1.00  1.00  2.00  0.00  0.00
E_2u   2.00 -1.00 -1.00  2.00  0.00  0.00 -2.00  1.00  1.00 -2.00  0.00  0.00

     the symmetry operations in each class and the name of the first element:

     E        1
                                                                 
     2C6      5    6
                                                                 
     2C3      7    8
                                                                 
     C2       2
                                                                 
     3C2'     4   12   11
                                                                 
     3C2''    3    9   10
                                                                 
     i       13
                                                                 
     2S3     17   18
                                                                 
     2S6     19   20
                                                                 
     s_h     14
                                                                 
     3s_d    16   24   23
                                                                 
     3s_v    15   21   22
                                                                 

     Band symmetry, D_6h(6/mmm) point group:

     e(  1 -  1) =    -38.14726  eV     1   --> A_1g           
     e(  2 -  2) =    -12.42578  eV     1   --> A_2u           
     e(  3 -  4) =    -11.85185  eV     2   --> E_1u           
     e(  5 -  5) =      7.61630  eV     1   --> A_1g           
     e(  6 -  6) =     17.64959  eV     1   --> A_1g           
     e(  7 -  8) =     18.00488  eV     2   --> E_2g           
     e(  9 -  9) =     19.89802  eV     1   --> A_2u           
     e( 10 - 11) =     24.01751  eV     2   --> E_1g           
     e( 12 - 13) =     26.79330  eV     2   --> E_2g           
     e( 14 - 15) =     28.69347  eV     2   --> E_1u           
     e( 16 - 16) =     29.64270  eV     1   --> B_2u           
     e( 17 - 17) =     32.86760  eV     1   --> B_1g           
     e( 18 - 18) =     34.98372  eV     1   --> A_1g           
     e( 19 - 20) =     41.46181  eV     2   --> E_2u           

 **************************************************************************

 **************************************************************************

                    xk=(   0.00000,   0.01443,   0.00000  )

     point group C_2v (mm2) 
     there are  4 classes
     the character table:

       E     C2    s_v   s_v' 
A_1    1.00  1.00  1.00  1.00
A_2    1.00  1.00 -1.00 -1.00
B_1    1.00 -1.00  1.00 -1.00
B_2    1.00 -1.00 -1.00  1.00

     the symmetry operations in each class and the name of the first element:

     E        1
                                                                 
     C2       2
                                                                 
     s_v      3
                                                                 
     s_v'     4
                                                                 

     Band symmetry, C_2v (mm2)  point group:

     e(  1 -  1) =    -38.14703  eV     1   --> A_1  D_1  S_1  
     e(  2 -  2) =    -12.42548  eV     1   --> B_2  D_4  S_4  
     e(  3 -  3) =    -11.85365  eV     1   --> A_1  D_1  S_1  
     e(  4 -  4) =    -11.85225  eV     1   --> B_1  D_3  S_3  
     e(  5 -  5) =      7.62008  eV     1   --> A_1  D_1  S_1  
     e(  6 -  6) =     17.65278  eV     1   --> A_1  D_1  S_1  
     e(  7 -  7) =     17.99679  eV     1   --> A_1  D_1  S_1  
     e(  8 -  8) =     18.00703  eV     1   --> B_1  D_3  S_3  
     e(  9 -  9) =     19.88742  eV     1   --> B_2  D_4  S_4  
     e( 10 - 10) =     24.01561  eV     1   --> A_2  D_2  S_2  
     e( 11 - 11) =     24.03122  eV     1   --> B_2  D_4  S_4  
     e( 12 - 12) =     26.76269  eV     1   --> A_1  D_1  S_1  
     e( 13 - 13) =     26.76701  eV     1   --> B_1  D_3  S_3  
     e( 14 - 14) =     28.72197  eV     1   --> A_1  D_1  S_1  
     e( 15 - 15) =     28.72858  eV     1   --> B_1  D_3  S_3  
     e( 16 - 16) =     29.65687  eV     1   --> A_1  D_1  S_1  
     e( 17 - 17) =     32.85110  eV     1   --> B_2  D_4  S_4  
     e( 18 - 18) =     34.98624  eV     1   --> A_1  D_1  S_1  
     e( 19 - 19) =     41.46956  eV     1   --> A_2  D_2  S_2  
     e( 20 - 20) =     41.48885  eV     1   --> B_2  D_4  S_4  

 **************************************************************************

 **************************************************************************

                    xk=(   0.00000,   0.02887,   0.00000  )

     Band symmetry, C_2v (mm2)  point group:

     e(  1 -  1) =    -38.14634  eV     1   --> A_1  D_1  S_1  
     e(  2 -  2) =    -12.42458  eV     1   --> B_2  D_4  S_4  
     e(  3 -  3) =    -11.85905  eV     1   --> A_1  D_1  S_1  
     e(  4 -  4) =    -11.85345  eV     1   --> B_1  D_3  S_3  
     e(  5 -  5) =      7.63144  eV     1   --> A_1  D_1  S_1  
     e(  6 -  6) =     17.66228  eV     1   --> A_1  D_1  S_1  
     e(  7 -  7) =     17.97265  eV     1   --> A_1  D_1  S_1  
     e(  8 -  8) =     18.01346  eV     1   --> B_1  D_3  S_3  
     e(  9 -  9) =     19.85610  eV     1   --> B_2  D_4  S_4  
     e( 10 - 10) =     24.00992  eV     1   --> A_2  D_2  S_2  
     e( 11 - 11) =     24.07183  eV     1   --> B_2  D_4  S_4  
     e( 12 - 12) =     26.67626  eV     1   --> A_1  D_1  S_1  
     e( 13 - 13) =     26.69353  eV     1   --> B_1  D_3  S_3  
     e( 14 - 14) =     28.80220  eV     1   --> A_1  D_1  S_1  
     e( 15 - 15) =     28.82852  eV     1   --> B_1  D_3  S_3  
     e( 16 - 16) =     29.69912  eV     1   --> A_1  D_1  S_1  
     e( 17 - 17) =     32.80236  eV     1   --> B_2  D_4  S_4  
     e( 18 - 18) =     34.99376  eV     1   --> A_1  D_1  S_1  
     e( 19 - 19) =     41.49280  eV     1   --> A_2  D_2  S_2  
     e( 20 - 20) =     41.56925  eV     1   --> B_2  D_4  S_4  

 **************************************************************************

 **************************************************************************

                    xk=(   0.00000,   0.04330,   0.00000  )

     Band symmetry, C_2v (mm2)  point group:

     e(  1 -  1) =    -38.14520  eV     1   --> A_1  D_1  S_1  
     e(  2 -  2) =    -12.42309  eV     1   --> B_2  D_4  S_4  
     e(  3 -  3) =    -11.86799  eV     1   --> A_1  D_1  S_1  
     e(  4 -  4) =    -11.85545  eV     1   --> B_1  D_3  S_3  
     e(  5 -  5) =      7.65031  eV     1   --> A_1  D_1  S_1  
     e(  6 -  6) =     17.67794  eV     1   --> A_1  D_1  S_1  
     e(  7 -  7) =     17.93287  eV     1   --> A_1  D_1  S_1  
     e(  8 -  8) =     18.02408  eV     1   --> B_1  D_3  S_3  
     e(  9 -  9) =     19.80539  eV     1   --> B_2  D_4  S_4  
     e( 10 - 10) =     24.00048  eV     1   --> A_2  D_2  S_2  
     e( 11 - 11) =     24.13785  eV     1   --> B_2  D_4  S_4  
     e( 12 - 12) =     26.54654  eV     1   --> A_1  D_1  S_1  
     e( 13 - 13) =     26.58527  eV     1   --> B_1  D_3  S_3  
     e( 14 - 14) =     28.92199  eV     1   --> A_1  D_1  S_1  
     e( 15 - 15) =     28.98093  eV     1   --> B_1  D_3  S_3  
     e( 16 - 16) =     29.76873  eV     1   --> A_1  D_1  S_1  
     e( 17 - 17) =     32.72356  eV     1   --> B_2  D_4  S_4  
     e( 18 - 18) =     35.00612  eV     1   --> A_1  D_1  S_1  
     e( 19 - 19) =     41.53145  eV     1   --> A_2  D_2  S_2  
     e( 20 - 20) =     41.70089  eV     1   --> B_2  D_4  S_4  

 **************************************************************************

 **************************************************************************

                    xk=(   0.00000,   0.05774,   0.00000  )

     Band symmetry, C_2v (mm2)  point group:

     e(  1 -  1) =    -38.14359  eV     1   --> A_1  D_1  S_1  
     e(  2 -  2) =    -12.42101  eV     1   --> B_2  D_4  S_4  
     e(  3 -  3) =    -11.88042  eV     1   --> A_1  D_1  S_1  
     e(  4 -  4) =    -11.85823  eV     1   --> B_1  D_3  S_3  
     e(  5 -  5) =      7.67670  eV     1   --> A_1  D_1  S_1  
     e(  6 -  6) =     17.69942  eV     1   --> A_1  D_1  S_1  
     e(  7 -  7) =     17.87926  eV     1   --> A_1  D_1  S_1  
     e(  8 -  8) =     18.03904  eV     1   --> B_1  D_3  S_3  
     e(  9 -  9) =     19.73737  eV     1   --> B_2  D_4  S_4  
     e( 10 - 10) =     23.98740  eV     1   --> A_2  D_2  S_2  
     e( 11 - 11) =     24.22702  eV     1   --> B_2  D_4  S_4  
     e( 12 - 12) =     26.38862  eV     1   --> A_1  D_1  S_1  
     e( 13 - 13) =     26.45565  eV     1   --> B_1  D_3  S_3  
     e( 14 - 14) =     29.07008  eV     1   --> A_1  D_1  S_1  
     e( 15 - 15) =     29.17350  eV     1   --> B_1  D_3  S_3  
     e( 16 - 16) =     29.86536  eV     1   --> A_1  D_1  S_1  
     e( 17 - 17) =     32.61828  eV     1   --> B_2  D_4  S_4  
     e( 18 - 18) =     35.02327  eV     1   --> A_1  D_1  S_1  
     e( 19 - 19) =     41.58557  eV     1   --> A_2  D_2  S_2  
     e( 20 - 20) =     41.88074  eV     1   --> B_2  D_4  S_4  

 **************************************************************************

 **************************************************************************

                    xk=(   0.00000,   0.07217,   0.00000  )

     Band symmetry, C_2v (mm2)  point group:

     e(  1 -  1) =    -38.14157  eV     1   --> A_1  D_1  S_1  
     e(  2 -  2) =    -12.41836  eV     1   --> B_2  D_4  S_4  
     e(  3 -  3) =    -11.89625  eV     1   --> A_1  D_1  S_1  
     e(  4 -  4) =    -11.86177  eV     1   --> B_1  D_3  S_3  
     e(  5 -  5) =      7.71041  eV     1   --> A_1  D_1  S_1  
     e(  6 -  6) =     17.72567  eV     1   --> A_1  D_1  S_1  
     e(  7 -  7) =     17.81122  eV     1   --> A_1  D_1  S_1  
     e(  8 -  8) =     18.05757  eV     1   --> B_1  D_3  S_3  
     e(  9 -  9) =     19.65430  eV     1   --> B_2  D_4  S_4  
     e( 10 - 10) =     23.97078  eV     1   --> A_2  D_2  S_2  
     e( 11 - 11) =     24.33659  eV     1   --> B_2  D_4  S_4  
     e( 12 - 12) =     26.20975  eV     1   --> A_1  D_1  S_1  
     e( 13 - 13) =     26.31380  eV     1   --> B_1  D_3  S_3  
     e( 14 - 14) =     29.23348  eV     1   --> A_1  D_1  S_1  
     e( 15 - 15) =     29.39501  eV     1   --> B_1  D_3  S_3  
     e( 16 - 16) =     29.98583  eV     1   --> A_1  D_1  S_1  
     e( 17 - 17) =     32.49007  eV     1   --> B_2  D_4  S_4  
     e( 18 - 18) =     35.04436  eV     1   --> A_1  D_1  S_1  
     e( 19 - 19) =     41.65466  eV     1   --> A_2  D_2  S_2  
     e( 20 - 20) =     42.10458  eV     1   --> B_2  D_4  S_4  

 **************************************************************************

 **************************************************************************

                    xk=(   0.00000,   0.08660,   0.00000  )

     Band symmetry, C_2v (mm2)  point group:

     e(  1 -  1) =    -38.13912  eV     1   --> A_1  D_1  S_1  
     e(  2 -  2) =    -12.41516  eV     1   --> B_2  D_4  S_4  
     e(  3 -  3) =    -11.91534  eV     1   --> A_1  D_1  S_1  
     e(  4 -  4) =    -11.86605  eV     1   --> B_1  D_3  S_3  
     e(  5 -  5) =      7.75137  eV     1   --> A_1  D_1  S_1  
     e(  6 -  6) =     17.72159  eV     1   --> A_1  D_1  S_1  
     e(  7 -  7) =     17.76548  eV     1   --> A_1  D_1  S_1  
     e(  8 -  8) =     18.07972  eV     1   --> B_1  D_3  S_3  
     e(  9 -  9) =     19.55875  eV     1   --> B_2  D_4  S_4  
     e( 10 - 10) =     23.95077  eV     1   --> A_2  D_2  S_2  
     e( 11 - 11) =     24.46356  eV     1   --> B_2  D_4  S_4  
     e( 12 - 12) =     26.01980  eV     1   --> A_1  D_1  S_1  
     e( 13 - 13) =     26.16737  eV     1   --> B_1  D_3  S_3  
     e( 14 - 14) =     29.40639  eV     1   --> A_1  D_1  S_1  
     e( 15 - 15) =     29.63898  eV     1   --> B_1  D_3  S_3  
     e( 16 - 16) =     30.12943  eV     1   --> A_1  D_1  S_1  
     e( 17 - 17) =     32.34373  eV     1   --> B_2  D_4  S_4  
     e( 18 - 18) =     35.06919  eV     1   --> A_1  D_1  S_1  
     e( 19 - 19) =     41.73869  eV     1   --> A_2  D_2  S_2  
     e( 20 - 20) =     42.36829  eV     1   --> B_2  D_4  S_4  

 **************************************************************************

 **************************************************************************

                    xk=(   0.00000,   0.10104,   0.00000  )

     Band symmetry, C_2v (mm2)  point group:

     e(  1 -  1) =    -38.13626  eV     1   --> A_1  D_1  S_1  
     e(  2 -  2) =    -12.41141  eV     1   --> B_2  D_4  S_4  
     e(  3 -  3) =    -11.93757  eV     1   --> A_1  D_1  S_1  
     e(  4 -  4) =    -11.87104  eV     1   --> B_1  D_3  S_3  
     e(  5 -  5) =      7.79945  eV     1   --> A_1  D_1  S_1  
     e(  6 -  6) =     17.63054  eV     1   --> A_1  D_1  S_1  
     e(  7 -  7) =     17.79917  eV     1   --> A_1  D_1  S_1  
     e(  8 -  8) =     18.10519  eV     1   --> B_1  D_3  S_3  
     e(  9 -  9) =     19.45304  eV     1   --> B_2  D_4  S_4  
     e( 10 - 10) =     23.92754  eV     1   --> A_2  D_2  S_2  
     e( 11 - 11) =     24.60477  eV     1   --> B_2  D_4  S_4  
     e( 12 - 12) =     25.82452  eV     1   --> A_1  D_1  S_1  
     e( 13 - 13) =     26.02116  eV     1   --> B_1  D_3  S_3  
     e( 14 - 14) =     29.58352  eV     1   --> A_1  D_1  S_1  
     e( 15 - 15) =     29.90075  eV     1   --> B_1  D_3  S_3  
     e( 16 - 16) =     30.29440  eV     1   --> A_1  D_1  S_1  
     e( 17 - 17) =     32.18246  eV     1   --> B_2  D_4  S_4  
     e( 18 - 18) =     35.09689  eV     1   --> A_1  D_1  S_1  
     e( 19 - 19) =     41.83743  eV     1   --> A_2  D_2  S_2  
     e( 20 - 20) =     42.66711  eV     1   --> B_2  D_4  S_4  

 **************************************************************************

 **************************************************************************

                    xk=(   0.00000,   0.11547,   0.00000  )

     Band symmetry, C_2v (mm2)  point group:

     e(  1 -  1) =    -38.13299  eV     1   --> A_1  D_1  S_1  
     e(  2 -  2) =    -12.40715  eV     1   --> B_2  D_4  S_4  
     e(  3 -  3) =    -11.96277  eV     1   --> A_1  D_1  S_1  
     e(  4 -  4) =    -11.87670  eV     1   --> B_1  D_3  S_3  
     e(  5 -  5) =      7.85460  eV     1   --> A_1  D_1  S_1  
     e(  6 -  6) =     17.52529  eV     1   --> A_1  D_1  S_1  
     e(  7 -  7) =     17.84011  eV     1   --> A_1  D_1  S_1  
     e(  8 -  8) =     18.13365  eV     1   --> B_1  D_3  S_3  
     e(  9 -  9) =     19.34005  eV     1   --> B_2  D_4  S_4  
     e( 10 - 10) =     23.90130  eV     1   --> A_2  D_2  S_2  
     e( 11 - 11) =     24.75736  eV     1   --> B_2  D_4  S_4  
     e( 12 - 12) =     25.62851  eV     1   --> A_1  D_1  S_1  
     e( 13 - 13) =     25.87843  eV     1   --> B_1  D_3  S_3  
     e( 14 - 14) =     29.76231  eV     1   --> A_1  D_1  S_1  
     e( 15 - 15) =     30.17717  eV     1   --> B_1  D_3  S_3  
     e( 16 - 16) =     30.48010  eV     1   --> A_1  D_1  S_1  
     e( 17 - 17) =     32.01376  eV     1   --> B_2  D_4  S_4  
     e( 18 - 18) =     35.12713  eV     1   --> A_1  D_1  S_1  
     e( 19 - 19) =     41.95058  eV     1   --> A_2  D_2  S_2  
     e( 20 - 20) =     42.99788  eV     1   --> B_2  D_4  S_4  

 **************************************************************************

 **************************************************************************

                    xk=(   0.00000,   0.12990,   0.00000  )

     Band symmetry, C_2v (mm2)  point group:

     e(  1 -  1) =    -38.12936  eV     1   --> A_1  D_1  S_1  
     e(  2 -  2) =    -12.40240  eV     1   --> B_2  D_4  S_4  
     e(  3 -  3) =    -11.99075  eV     1   --> A_1  D_1  S_1  
     e(  4 -  4) =    -11.88301  eV     1   --> B_1  D_3  S_3  
     e(  5 -  5) =      7.91646  eV     1   --> A_1  D_1  S_1  
     e(  6 -  6) =     17.40983  eV     1   --> A_1  D_1  S_1  
     e(  7 -  7) =     17.88465  eV     1   --> A_1  D_1  S_1  
     e(  8 -  8) =     18.16469  eV     1   --> B_1  D_3  S_3  
     e(  9 -  9) =     19.22094  eV     1   --> B_2  D_4  S_4  
     e( 10 - 10) =     23.87227  eV     1   --> A_2  D_2  S_2  
     e( 11 - 11) =     24.91810  eV     1   --> B_2  D_4  S_4  
     e( 12 - 12) =     25.43469  eV     1   --> A_1  D_1  S_1  
     e( 13 - 13) =     25.74146  eV     1   --> B_1  D_3  S_3  
     e( 14 - 14) =     29.93740  eV     1   --> A_1  D_1  S_1  
     e( 15 - 15) =     30.46606  eV     1   --> B_1  D_3  S_3  
     e( 16 - 16) =     30.68539  eV     1   --> A_1  D_1  S_1  
     e( 17 - 17) =     31.84056  eV     1   --> B_2  D_4  S_4  
     e( 18 - 18) =     35.15870  eV     1   --> A_1  D_1  S_1  
     e( 19 - 19) =     42.07783  eV     1   --> A_2  D_2  S_2  
     e( 20 - 20) =     43.35573  eV     1   --> B_2  D_4  S_4  

 **************************************************************************

 **************************************************************************

                    xk=(   0.00000,   0.14434,   0.00000  )

     Band symmetry, C_2v (mm2)  point group:

     e(  1 -  1) =    -38.12538  eV     1   --> A_1  D_1  S_1  
     e(  2 -  2) =    -12.39718  eV     1   --> B_2  D_4  S_4  
     e(  3 -  3) =    -12.02131  eV     1   --> A_1  D_1  S_1  
     e(  4 -  4) =    -11.88992  eV     1   --> B_1  D_3  S_3  
     e(  5 -  5) =      7.98484  eV     1   --> A_1  D_1  S_1  
     e(  6 -  6) =     17.28595  eV     1   --> A_1  D_1  S_1  
     e(  7 -  7) =     17.93163  eV     1   --> A_1  D_1  S_1  
     e(  8 -  8) =     18.19792  eV     1   --> B_1  D_3  S_3  
     e(  9 -  9) =     19.09783  eV     1   --> B_2  D_4  S_4  
     e( 10 - 10) =     23.84068  eV     1   --> A_2  D_2  S_2  
     e( 11 - 11) =     25.08409  eV     1   --> B_2  D_4  S_4  
     e( 12 - 12) =     25.24617  eV     1   --> A_1  D_1  S_1  
     e( 13 - 13) =     25.61199  eV     1   --> B_1  D_3  S_3  
     e( 14 - 14) =     30.10822  eV     1   --> A_1  D_1  S_1  
     e( 15 - 15) =     30.76585  eV     1   --> B_1  D_3  S_3  
     e( 16 - 16) =     30.90957  eV     1   --> A_1  D_1  S_1  
     e( 17 - 17) =     31.66712  eV     1   --> B_2  D_4  S_4  
     e( 18 - 18) =     35.18900  eV     1   --> A_1  D_1  S_1  
     e( 19 - 19) =     42.21884  eV     1   --> A_2  D_2  S_2  
     e( 20 - 20) =     43.73724  eV     1   --> B_2  D_4  S_4  

 **************************************************************************

 **************************************************************************

                    xk=(   0.00000,   0.15877,   0.00000  )

     Band symmetry, C_2v (mm2)  point group:

     e(  1 -  1) =    -38.12106  eV     1   --> A_1  D_1  S_1  
     e(  2 -  2) =    -12.39153  eV     1   --> B_2  D_4  S_4  
     e(  3 -  3) =    -12.05424  eV     1   --> A_1  D_1  S_1  
     e(  4 -  4) =    -11.89738  eV     1   --> B_1  D_3  S_3  
     e(  5 -  5) =      8.05977  eV     1   --> A_1  D_1  S_1  
     e(  6 -  6) =     17.15438  eV     1   --> A_1  D_1  S_1  
     e(  7 -  7) =     17.97999  eV     1   --> A_1  D_1  S_1  
     e(  8 -  8) =     18.23300  eV     1   --> B_1  D_3  S_3  
     e(  9 -  9) =     18.97219  eV     1   --> B_2  D_4  S_4  
     e( 10 - 10) =     23.80678  eV     1   --> A_2  D_2  S_2  
     e( 11 - 11) =     25.06605  eV     1   --> A_1  D_1  S_1  
     e( 12 - 12) =     25.25235  eV     1   --> B_2  D_4  S_4  
     e( 13 - 13) =     25.49114  eV     1   --> B_1  D_3  S_3  
     e( 14 - 14) =     30.27041  eV     1   --> A_1  D_1  S_1  
     e( 15 - 15) =     31.07617  eV     1   --> B_1  D_3  S_3  
     e( 16 - 16) =     31.15191  eV     1   --> A_1  D_1  S_1  
     e( 17 - 17) =     31.49752  eV     1   --> B_2  D_4  S_4  
     e( 18 - 18) =     35.21959  eV     1   --> A_1  D_1  S_1  
     e( 19 - 19) =     42.37322  eV     1   --> A_2  D_2  S_2  
     e( 20 - 20) =     44.13889  eV     1   --> B_2  D_4  S_4  

 **************************************************************************

 **************************************************************************

                    xk=(   0.00000,   0.17321,   0.00000  )

     Band symmetry, C_2v (mm2)  point group:

     e(  1 -  1) =    -38.11644  eV     1   --> A_1  D_1  S_1  
     e(  2 -  2) =    -12.38549  eV     1   --> B_2  D_4  S_4  
     e(  3 -  3) =    -12.08930  eV     1   --> A_1  D_1  S_1  
     e(  4 -  4) =    -11.90534  eV     1   --> B_1  D_3  S_3  
     e(  5 -  5) =      8.14081  eV     1   --> A_1  D_1  S_1  
     e(  6 -  6) =     17.01594  eV     1   --> A_1  D_1  S_1  
     e(  7 -  7) =     18.02851  eV     1   --> A_1  D_1  S_1  
     e(  8 -  8) =     18.26906  eV     1   --> B_1  D_3  S_3  
     e(  9 -  9) =     18.84529  eV     1   --> B_2  D_4  S_4  
     e( 10 - 10) =     23.77086  eV     1   --> A_2  D_2  S_2  
     e( 11 - 11) =     24.89549  eV     1   --> A_1  D_1  S_1  
     e( 12 - 12) =     25.37991  eV     1   --> B_1  D_3  S_3  
     e( 13 - 13) =     25.41980  eV     1   --> B_2  D_4  S_4  
     e( 14 - 14) =     30.42357  eV     1   --> A_1  D_1  S_1  
     e( 15 - 15) =     31.33574  eV     1   --> B_2  D_4  S_4  
     e( 16 - 16) =     31.39475  eV     1   --> B_1  D_3  S_3  
     e( 17 - 17) =     31.41136  eV     1   --> A_1  D_1  S_1  
     e( 18 - 18) =     35.24771  eV     1   --> A_1  D_1  S_1  
     e( 19 - 19) =     42.54054  eV     1   --> A_2  D_2  S_2  
     e( 20 - 20) =     44.55730  eV     1   --> B_2  D_4  S_4  

 **************************************************************************

 **************************************************************************

                    xk=(   0.00000,   0.18764,   0.00000  )

     Band symmetry, C_2v (mm2)  point group:

     e(  1 -  1) =    -38.11153  eV     1   --> A_1  D_1  S_1  
     e(  2 -  2) =    -12.37908  eV     1   --> B_2  D_4  S_4  
     e(  3 -  3) =    -12.12626  eV     1   --> A_1  D_1  S_1  
     e(  4 -  4) =    -11.91376  eV     1   --> B_1  D_3  S_3  
     e(  5 -  5) =      8.22782  eV     1   --> A_1  D_1  S_1  
     e(  6 -  6) =     16.87290  eV     1   --> A_1  D_1  S_1  
     e(  7 -  7) =     18.07589  eV     1   --> A_1  D_1  S_1  
     e(  8 -  8) =     18.30581  eV     1   --> B_1  D_3  S_3  
     e(  9 -  9) =     18.71828  eV     1   --> B_2  D_4  S_4  
     e( 10 - 10) =     23.73317  eV     1   --> A_2  D_2  S_2  
     e( 11 - 11) =     24.73873  eV     1   --> A_1  D_1  S_1  
     e( 12 - 12) =     25.27910  eV     1   --> B_1  D_3  S_3  
     e( 13 - 13) =     25.58326  eV     1   --> B_2  D_4  S_4  
     e( 14 - 14) =     30.56691  eV     1   --> A_1  D_1  S_1  
     e( 15 - 15) =     31.18691  eV     1   --> B_2  D_4  S_4  
     e( 16 - 16) =     31.68665  eV     1   --> A_1  D_1  S_1  
     e( 17 - 17) =     31.72174  eV     1   --> B_1  D_3  S_3  
     e( 18 - 18) =     35.27180  eV     1   --> A_1  D_1  S_1  
     e( 19 - 19) =     42.72053  eV     1   --> A_2  D_2  S_2  
     e( 20 - 20) =     44.98896  eV     1   --> B_2  D_4  S_4  

 **************************************************************************

 **************************************************************************

                    xk=(   0.00000,   0.20207,   0.00000  )

     Band symmetry, C_2v (mm2)  point group:

     e(  1 -  1) =    -38.10639  eV     1   --> A_1  D_1  S_1  
     e(  2 -  2) =    -12.37234  eV     1   --> B_2  D_4  S_4  
     e(  3 -  3) =    -12.16485  eV     1   --> A_1  D_1  S_1  
     e(  4 -  4) =    -11.92259  eV     1   --> B_1  D_3  S_3  
     e(  5 -  5) =      8.32074  eV     1   --> A_1  D_1  S_1  
     e(  6 -  6) =     16.72467  eV     1   --> A_1  D_1  S_1  
     e(  7 -  7) =     18.12069  eV     1   --> A_1  D_1  S_1  
     e(  8 -  8) =     18.34266  eV     1   --> B_1  D_3  S_3  
     e(  9 -  9) =     18.59212  eV     1   --> B_2  D_4  S_4  
     e( 10 - 10) =     23.69401  eV     1   --> A_2  D_2  S_2  
     e( 11 - 11) =     24.59553  eV     1   --> A_1  D_1  S_1  
     e( 12 - 12) =     25.18958  eV     1   --> B_1  D_3  S_3  
     e( 13 - 13) =     25.73980  eV     1   --> B_2  D_4  S_4  
     e( 14 - 14) =     30.70187  eV     1   --> A_1  D_1  S_1  
     e( 15 - 15) =     31.05018  eV     1   --> B_2  D_4  S_4  
     e( 16 - 16) =     31.97597  eV     1   --> A_1  D_1  S_1  
     e( 17 - 17) =     32.05658  eV     1   --> B_1  D_3  S_3  
     e( 18 - 18) =     35.29018  eV     1   --> A_1  D_1  S_1  
     e( 19 - 19) =     42.91281  eV     1   --> A_2  D_2  S_2  
     e( 20 - 20) =     45.42866  eV     1   --> B_2  D_4  S_4  

 **************************************************************************

 **************************************************************************

                    xk=(   0.00000,   0.21651,   0.00000  )

     Band symmetry, C_2v (mm2)  point group:

     e(  1 -  1) =    -38.10103  eV     1   --> A_1  D_1  S_1  
     e(  2 -  2) =    -12.36532  eV     1   --> B_2  D_4  S_4  
     e(  3 -  3) =    -12.20482  eV     1   --> A_1  D_1  S_1  
     e(  4 -  4) =    -11.93175  eV     1   --> B_1  D_3  S_3  
     e(  5 -  5) =      8.41875  eV     1   --> A_1  D_1  S_1  
     e(  6 -  6) =     16.57225  eV     1   --> A_1  D_1  S_1  
     e(  7 -  7) =     18.16148  eV     1   --> A_1  D_1  S_1  
     e(  8 -  8) =     18.37913  eV     1   --> B_1  D_3  S_3  
     e(  9 -  9) =     18.46712  eV     1   --> B_2  D_4  S_4  
     e( 10 - 10) =     23.65364  eV     1   --> A_2  D_2  S_2  
     e( 11 - 11) =     24.46874  eV     1   --> A_1  D_1  S_1  
     e( 12 - 12) =     25.11117  eV     1   --> B_1  D_3  S_3  
     e( 13 - 13) =     25.88510  eV     1   --> B_2  D_4  S_4  
     e( 14 - 14) =     30.82429  eV     1   --> A_1  D_1  S_1  
     e( 15 - 15) =     30.93561  eV     1   --> B_2  D_4  S_4  
     e( 16 - 16) =     32.27844  eV     1   --> A_1  D_1  S_1  
     e( 17 - 17) =     32.39757  eV     1   --> B_1  D_3  S_3  
     e( 18 - 18) =     35.30015  eV     1   --> A_1  D_1  S_1  
     e( 19 - 19) =     43.11621  eV     1   --> A_2  D_2  S_2  
     e( 20 - 20) =     45.87443  eV     1   --> B_2  D_4  S_4  

 **************************************************************************

 **************************************************************************

                    xk=(   0.00000,   0.23094,   0.00000  )

     Band symmetry, C_2v (mm2)  point group:

     e(  1 -  1) =    -38.09550  eV     1   --> A_1  D_1  S_1  
     e(  2 -  2) =    -12.35806  eV     1   --> B_2  D_4  S_4  
     e(  3 -  3) =    -12.24591  eV     1   --> A_1  D_1  S_1  
     e(  4 -  4) =    -11.94120  eV     1   --> B_1  D_3  S_3  
     e(  5 -  5) =      8.52123  eV     1   --> A_1  D_1  S_1  
     e(  6 -  6) =     16.41670  eV     1   --> A_1  D_1  S_1  
     e(  7 -  7) =     18.19675  eV     1   --> A_1  D_1  S_1  
     e(  8 -  8) =     18.34418  eV     1   --> B_2  D_4  S_4  
     e(  9 -  9) =     18.41471  eV     1   --> B_1  D_3  S_3  
     e( 10 - 10) =     23.61237  eV     1   --> A_2  D_2  S_2  
     e( 11 - 11) =     24.36048  eV     1   --> A_1  D_1  S_1  
     e( 12 - 12) =     25.04468  eV     1   --> B_1  D_3  S_3  
     e( 13 - 13) =     26.01600  eV     1   --> B_2  D_4  S_4  
     e( 14 - 14) =     30.84464  eV     1   --> B_2  D_4  S_4  
     e( 15 - 15) =     30.93609  eV     1   --> A_1  D_1  S_1  
     e( 16 - 16) =     32.59196  eV     1   --> A_1  D_1  S_1  
     e( 17 - 17) =     32.74577  eV     1   --> B_1  D_3  S_3  
     e( 18 - 18) =     35.30052  eV     1   --> A_1  D_1  S_1  
     e( 19 - 19) =     43.33059  eV     1   --> A_2  D_2  S_2  
     e( 20 - 20) =     46.20564  eV     1   --> A_1  D_1  S_1  

 **************************************************************************

 **************************************************************************

                    xk=(   0.00000,   0.24537,   0.00000  )

     Band symmetry, C_2v (mm2)  point group:

     e(  1 -  1) =    -38.08980  eV     1   --> A_1  D_1  S_1  
     e(  2 -  2) =    -12.35061  eV     1   --> B_2  D_4  S_4  
     e(  3 -  3) =    -12.28784  eV     1   --> A_1  D_1  S_1  
     e(  4 -  4) =    -11.95088  eV     1   --> B_1  D_3  S_3  
     e(  5 -  5) =      8.62921  eV     1   --> A_1  D_1  S_1  
     e(  6 -  6) =     16.25891  eV     1   --> A_1  D_1  S_1  
     e(  7 -  7) =     18.22391  eV     1   --> B_2  D_4  S_4  
     e(  8 -  8) =     18.22509  eV     1   --> A_1  D_1  S_1  
     e(  9 -  9) =     18.44931  eV     1   --> B_1  D_3  S_3  
     e( 10 - 10) =     23.57046  eV     1   --> A_2  D_2  S_2  
     e( 11 - 11) =     24.27245  eV     1   --> A_1  D_1  S_1  
     e( 12 - 12) =     24.99066  eV     1   --> B_1  D_3  S_3  
     e( 13 - 13) =     26.12939  eV     1   --> B_2  D_4  S_4  
     e( 14 - 14) =     30.78117  eV     1   --> B_2  D_4  S_4  
     e( 15 - 15) =     31.03950  eV     1   --> A_1  D_1  S_1  
     e( 16 - 16) =     32.91419  eV     1   --> A_1  D_1  S_1  
     e( 17 - 17) =     33.09995  eV     1   --> B_1  D_3  S_3  
     e( 18 - 18) =     35.29239  eV     1   --> A_1  D_1  S_1  
     e( 19 - 19) =     43.55574  eV     1   --> A_2  D_2  S_2  
     e( 20 - 20) =     46.12767  eV     1   --> A_1  D_1  S_1  

 **************************************************************************

 **************************************************************************

                    xk=(   0.00000,   0.25981,   0.00000  )

     Band symmetry, C_2v (mm2)  point group:

     e(  1 -  1) =    -38.08399  eV     1   --> A_1  D_1  S_1  
     e(  2 -  2) =    -12.34300  eV     1   --> B_2  D_4  S_4  
     e(  3 -  3) =    -12.33035  eV     1   --> A_1  D_1  S_1  
     e(  4 -  4) =    -11.96072  eV     1   --> B_1  D_3  S_3  
     e(  5 -  5) =      8.74243  eV     1   --> A_1  D_1  S_1  
     e(  6 -  6) =     16.09917  eV     1   --> A_1  D_1  S_1  
     e(  7 -  7) =     18.10746  eV     1   --> B_2  D_4  S_4  
     e(  8 -  8) =     18.24530  eV     1   --> A_1  D_1  S_1  
     e(  9 -  9) =     18.48167  eV     1   --> B_1  D_3  S_3  
     e( 10 - 10) =     23.52819  eV     1   --> A_2  D_2  S_2  
     e( 11 - 11) =     24.20747  eV     1   --> A_1  D_1  S_1  
     e( 12 - 12) =     24.94842  eV     1   --> B_1  D_3  S_3  
     e( 13 - 13) =     26.22268  eV     1   --> B_2  D_4  S_4  
     e( 14 - 14) =     30.74764  eV     1   --> B_2  D_4  S_4  
     e( 15 - 15) =     31.13092  eV     1   --> A_1  D_1  S_1  
     e( 16 - 16) =     33.24526  eV     1   --> A_1  D_1  S_1  
     e( 17 - 17) =     33.46028  eV     1   --> B_1  D_3  S_3  
     e( 18 - 18) =     35.27296  eV     1   --> A_1  D_1  S_1  
     e( 19 - 19) =     43.79045  eV     1   --> A_2  D_2  S_2  
     e( 20 - 20) =     46.02525  eV     1   --> A_1  D_1  S_1  

 **************************************************************************

 **************************************************************************

                    xk=(   0.00000,   0.27424,   0.00000  )

     Band symmetry, C_2v (mm2)  point group:

     e(  1 -  1) =    -38.07811  eV     1   --> A_1  D_1  S_1  
     e(  2 -  2) =    -12.37317  eV     1   --> A_1  D_1  S_1  
     e(  3 -  3) =    -12.33528  eV     1   --> B_2  D_4  S_4  
     e(  4 -  4) =    -11.97067  eV     1   --> B_1  D_3  S_3  
     e(  5 -  5) =      8.85978  eV     1   --> A_1  D_1  S_1  
     e(  6 -  6) =     15.93804  eV     1   --> A_1  D_1  S_1  
     e(  7 -  7) =     17.99365  eV     1   --> B_2  D_4  S_4  
     e(  8 -  8) =     18.25616  eV     1   --> A_1  D_1  S_1  
     e(  9 -  9) =     18.51182  eV     1   --> B_1  D_3  S_3  
     e( 10 - 10) =     23.48584  eV     1   --> A_2  D_2  S_2  
     e( 11 - 11) =     24.16611  eV     1   --> A_1  D_1  S_1  
     e( 12 - 12) =     24.91831  eV     1   --> B_1  D_3  S_3  
     e( 13 - 13) =     26.29243  eV     1   --> B_2  D_4  S_4  
     e( 14 - 14) =     30.74631  eV     1   --> B_2  D_4  S_4  
     e( 15 - 15) =     31.21209  eV     1   --> A_1  D_1  S_1  
     e( 16 - 16) =     33.58192  eV     1   --> A_1  D_1  S_1  
     e( 17 - 17) =     33.82599  eV     1   --> B_1  D_3  S_3  
     e( 18 - 18) =     35.24161  eV     1   --> A_1  D_1  S_1  
     e( 19 - 19) =     44.03428  eV     1   --> A_2  D_2  S_2  
     e( 20 - 20) =     45.89845  eV     1   --> A_1  D_1  S_1  

 **************************************************************************

 **************************************************************************

                    xk=(   0.00000,   0.28868,   0.00000  )

     Band symmetry, C_2v (mm2)  point group:

     e(  1 -  1) =    -38.07218  eV     1   --> A_1  D_1  S_1  
     e(  2 -  2) =    -12.41603  eV     1   --> A_1  D_1  S_1  
     e(  3 -  3) =    -12.32751  eV     1   --> B_2  D_4  S_4  
     e(  4 -  4) =    -11.98066  eV     1   --> B_1  D_3  S_3  
     e(  5 -  5) =      8.98097  eV     1   --> A_1  D_1  S_1  
     e(  6 -  6) =     15.77610  eV     1   --> A_1  D_1  S_1  
     e(  7 -  7) =     17.88355  eV     1   --> B_2  D_4  S_4  
     e(  8 -  8) =     18.25701  eV     1   --> A_1  D_1  S_1  
     e(  9 -  9) =     18.53954  eV     1   --> B_1  D_3  S_3  
     e( 10 - 10) =     23.44366  eV     1   --> A_2  D_2  S_2  
     e( 11 - 11) =     24.14915  eV     1   --> A_1  D_1  S_1  
     e( 12 - 12) =     24.89986  eV     1   --> B_1  D_3  S_3  
     e( 13 - 13) =     26.33836  eV     1   --> B_2  D_4  S_4  
     e( 14 - 14) =     30.77702  eV     1   --> B_2  D_4  S_4  
     e( 15 - 15) =     31.28321  eV     1   --> A_1  D_1  S_1  
     e( 16 - 16) =     33.91842  eV     1   --> A_1  D_1  S_1  
     e( 17 - 17) =     34.19992  eV     1   --> B_1  D_3  S_3  
     e( 18 - 18) =     35.19923  eV     1   --> A_1  D_1  S_1  
     e( 19 - 19) =     44.28654  eV     1   --> A_2  D_2  S_2  
     e( 20 - 20) =     45.74793  eV     1   --> A_1  D_1  S_1  

 **************************************************************************

 **************************************************************************

                    xk=(   0.00000,   0.30311,   0.00000  )

     Band symmetry, C_2v (mm2)  point group:

     e(  1 -  1) =    -38.06624  eV     1   --> A_1  D_1  S_1  
     e(  2 -  2) =    -12.45866  eV     1   --> A_1  D_1  S_1  
     e(  3 -  3) =    -12.31972  eV     1   --> B_2  D_4  S_4  
     e(  4 -  4) =    -11.99062  eV     1   --> B_1  D_3  S_3  
     e(  5 -  5) =      9.10629  eV     1   --> A_1  D_1  S_1  
     e(  6 -  6) =     15.61342  eV     1   --> A_1  D_1  S_1  
     e(  7 -  7) =     17.77763  eV     1   --> B_2  D_4  S_4  
     e(  8 -  8) =     18.24759  eV     1   --> A_1  D_1  S_1  
     e(  9 -  9) =     18.56435  eV     1   --> B_1  D_3  S_3  
     e( 10 - 10) =     23.40192  eV     1   --> A_2  D_2  S_2  
     e( 11 - 11) =     24.15743  eV     1   --> A_1  D_1  S_1  
     e( 12 - 12) =     24.89333  eV     1   --> B_1  D_3  S_3  
     e( 13 - 13) =     26.36108  eV     1   --> B_2  D_4  S_4  
     e( 14 - 14) =     30.84121  eV     1   --> B_2  D_4  S_4  
     e( 15 - 15) =     31.34436  eV     1   --> A_1  D_1  S_1  
     e( 16 - 16) =     34.25218  eV     1   --> A_1  D_1  S_1  
     e( 17 - 17) =     34.57514  eV     1   --> B_1  D_3  S_3  
     e( 18 - 18) =     35.15203  eV     1   --> A_1  D_1  S_1  
     e( 19 - 19) =     44.54663  eV     1   --> A_2  D_2  S_2  
     e( 20 - 20) =     45.58192  eV     1   --> A_1  D_1  S_1  

 **************************************************************************

 **************************************************************************

                    xk=(   0.00000,   0.31754,   0.00000  )

     Band symmetry, C_2v (mm2)  point group:

     e(  1 -  1) =    -38.06034  eV     1   --> A_1  D_1  S_1  
     e(  2 -  2) =    -12.50082  eV     1   --> A_1  D_1  S_1  
     e(  3 -  3) =    -12.31197  eV     1   --> B_2  D_4  S_4  
     e(  4 -  4) =    -12.00051  eV     1   --> B_1  D_3  S_3  
     e(  5 -  5) =      9.23518  eV     1   --> A_1  D_1  S_1  
     e(  6 -  6) =     15.45042  eV     1   --> A_1  D_1  S_1  
     e(  7 -  7) =     17.67606  eV     1   --> B_2  D_4  S_4  
     e(  8 -  8) =     18.22800  eV     1   --> A_1  D_1  S_1  
     e(  9 -  9) =     18.58622  eV     1   --> B_1  D_3  S_3  
     e( 10 - 10) =     23.36084  eV     1   --> A_2  D_2  S_2  
     e( 11 - 11) =     24.19072  eV     1   --> A_1  D_1  S_1  
     e( 12 - 12) =     24.89792  eV     1   --> B_1  D_3  S_3  
     e( 13 - 13) =     26.36216  eV     1   --> B_2  D_4  S_4  
     e( 14 - 14) =     30.93582  eV     1   --> B_2  D_4  S_4  
     e( 15 - 15) =     31.39540  eV     1   --> A_1  D_1  S_1  
     e( 16 - 16) =     34.55622  eV     1   --> A_1  D_1  S_1  
     e( 17 - 17) =     34.95430  eV     1   --> B_1  D_3  S_3  
     e( 18 - 18) =     35.12310  eV     1   --> A_1  D_1  S_1  
     e( 19 - 19) =     44.81367  eV     1   --> A_2  D_2  S_2  
     e( 20 - 20) =     45.40304  eV     1   --> A_1  D_1  S_1  

 **************************************************************************

 **************************************************************************

                    xk=(   0.00000,   0.33198,   0.00000  )

     Band symmetry, C_2v (mm2)  point group:

     e(  1 -  1) =    -38.05450  eV     1   --> A_1  D_1  S_1  
     e(  2 -  2) =    -12.54225  eV     1   --> A_1  D_1  S_1  
     e(  3 -  3) =    -12.30431  eV     1   --> B_2  D_4  S_4  
     e(  4 -  4) =    -12.01026  eV     1   --> B_1  D_3  S_3  
     e(  5 -  5) =      9.36733  eV     1   --> A_1  D_1  S_1  
     e(  6 -  6) =     15.28736  eV     1   --> A_1  D_1  S_1  
     e(  7 -  7) =     17.57905  eV     1   --> B_2  D_4  S_4  
     e(  8 -  8) =     18.19876  eV     1   --> A_1  D_1  S_1  
     e(  9 -  9) =     18.60510  eV     1   --> B_1  D_3  S_3  
     e( 10 - 10) =     23.32067  eV     1   --> A_2  D_2  S_2  
     e( 11 - 11) =     24.24846  eV     1   --> A_1  D_1  S_1  
     e( 12 - 12) =     24.91299  eV     1   --> B_1  D_3  S_3  
     e( 13 - 13) =     26.34426  eV     1   --> B_2  D_4  S_4  
     e( 14 - 14) =     31.05770  eV     1   --> B_2  D_4  S_4  
     e( 15 - 15) =     31.43609  eV     1   --> A_1  D_1  S_1  
     e( 16 - 16) =     34.73314  eV     1   --> A_1  D_1  S_1  
     e( 17 - 17) =     35.20915  eV     1   --> A_1  D_1  S_1  
     e( 18 - 18) =     35.33682  eV     1   --> B_1  D_3  S_3  
     e( 19 - 19) =     45.08679  eV     1   --> A_2  D_2  S_2  
     e( 20 - 20) =     45.21564  eV     1   --> A_1  D_1  S_1  

 **************************************************************************

 **************************************************************************

                    xk=(   0.00000,   0.34641,   0.00000  )

     Band symmetry, C_2v (mm2)  point group:

     e(  1 -  1) =    -38.04876  eV     1   --> A_1  D_1  S_1  
     e(  2 -  2) =    -12.58270  eV     1   --> A_1  D_1  S_1  
     e(  3 -  3) =    -12.29678  eV     1   --> B_2  D_4  S_4  
     e(  4 -  4) =    -12.01980  eV     1   --> B_1  D_3  S_3  
     e(  5 -  5) =      9.50160  eV     1   --> A_1  D_1  S_1  
     e(  6 -  6) =     15.12447  eV     1   --> A_1  D_1  S_1  
     e(  7 -  7) =     17.48679  eV     1   --> B_2  D_4  S_4  
     e(  8 -  8) =     18.16079  eV     1   --> A_1  D_1  S_1  
     e(  9 -  9) =     18.62083  eV     1   --> B_1  D_3  S_3  
     e( 10 - 10) =     23.28162  eV     1   --> A_2  D_2  S_2  
     e( 11 - 11) =     24.32951  eV     1   --> A_1  D_1  S_1  
     e( 12 - 12) =     24.93742  eV     1   --> B_1  D_3  S_3  
     e( 13 - 13) =     26.31058  eV     1   --> B_2  D_4  S_4  
     e( 14 - 14) =     31.20301  eV     1   --> B_2  D_4  S_4  
     e( 15 - 15) =     31.46604  eV     1   --> A_1  D_1  S_1  
     e( 16 - 16) =     34.71800  eV     1   --> A_1  D_1  S_1  
     e( 17 - 17) =     35.47434  eV     1   --> A_1  D_1  S_1  
     e( 18 - 18) =     35.72057  eV     1   --> B_1  D_3  S_3  
     e( 19 - 19) =     45.02151  eV     1   --> A_1  D_1  S_1  
     e( 20 - 20) =     45.05562  eV     1   --> B_1  D_3  S_3  

 **************************************************************************

 **************************************************************************

                    xk=(   0.00000,   0.36084,   0.00000  )

     Band symmetry, C_2v (mm2)  point group:

     e(  1 -  1) =    -38.04316  eV     1   --> A_1  D_1  S_1  
     e(  2 -  2) =    -12.62195  eV     1   --> A_1  D_1  S_1  
     e(  3 -  3) =    -12.28943  eV     1   --> B_2  D_4  S_4  
     e(  4 -  4) =    -12.02909  eV     1   --> B_1  D_3  S_3  
     e(  5 -  5) =      9.63925  eV     1   --> A_1  D_1  S_1  
     e(  6 -  6) =     14.96196  eV     1   --> A_1  D_1  S_1  
     e(  7 -  7) =     17.39946  eV     1   --> B_2  D_4  S_4  
     e(  8 -  8) =     18.11534  eV     1   --> A_1  D_1  S_1  
     e(  9 -  9) =     18.63380  eV     1   --> B_1  D_3  S_3  
     e( 10 - 10) =     23.24391  eV     1   --> A_2  D_2  S_2  
     e( 11 - 11) =     24.43260  eV     1   --> A_1  D_1  S_1  
     e( 12 - 12) =     24.97089  eV     1   --> B_1  D_3  S_3  
     e( 13 - 13) =     26.26456  eV     1   --> B_2  D_4  S_4  
     e( 14 - 14) =     31.36756  eV     1   --> B_2  D_4  S_4  
     e( 15 - 15) =     31.48467  eV     1   --> A_1  D_1  S_1  
     e( 16 - 16) =     34.62488  eV     1   --> A_1  D_1  S_1  
     e( 17 - 17) =     35.80646  eV     1   --> A_1  D_1  S_1  
     e( 18 - 18) =     36.10753  eV     1   --> B_1  D_3  S_3  
     e( 19 - 19) =     44.64803  eV     1   --> B_1  D_3  S_3  
     e( 20 - 20) =     44.82725  eV     1   --> A_1  D_1  S_1  

 **************************************************************************

 **************************************************************************

                    xk=(   0.00000,   0.37528,   0.00000  )

     Band symmetry, C_2v (mm2)  point group:

     e(  1 -  1) =    -38.03773  eV     1   --> A_1  D_1  S_1  
     e(  2 -  2) =    -12.65977  eV     1   --> A_1  D_1  S_1  
     e(  3 -  3) =    -12.28230  eV     1   --> B_2  D_4  S_4  
     e(  4 -  4) =    -12.03807  eV     1   --> B_1  D_3  S_3  
     e(  5 -  5) =      9.77916  eV     1   --> A_1  D_1  S_1  
     e(  6 -  6) =     14.80062  eV     1   --> A_1  D_1  S_1  
     e(  7 -  7) =     17.31723  eV     1   --> B_2  D_4  S_4  
     e(  8 -  8) =     18.06387  eV     1   --> A_1  D_1  S_1  
     e(  9 -  9) =     18.64447  eV     1   --> B_1  D_3  S_3  
     e( 10 - 10) =     23.20772  eV     1   --> A_2  D_2  S_2  
     e( 11 - 11) =     24.55622  eV     1   --> A_1  D_1  S_1  
     e( 12 - 12) =     25.01198  eV     1   --> B_1  D_3  S_3  
     e( 13 - 13) =     26.20961  eV     1   --> B_2  D_4  S_4  
     e( 14 - 14) =     31.49124  eV     1   --> A_1  D_1  S_1  
     e( 15 - 15) =     31.54746  eV     1   --> B_2  D_4  S_4  
     e( 16 - 16) =     34.50475  eV     1   --> A_1  D_1  S_1  
     e( 17 - 17) =     36.15533  eV     1   --> A_1  D_1  S_1  
     e( 18 - 18) =     36.49838  eV     1   --> B_1  D_3  S_3  
     e( 19 - 19) =     44.25784  eV     1   --> B_1  D_3  S_3  
     e( 20 - 20) =     44.63346  eV     1   --> A_1  D_1  S_1  

 **************************************************************************

 **************************************************************************

                    xk=(   0.00000,   0.38971,   0.00000  )

     Band symmetry, C_2v (mm2)  point group:

     e(  1 -  1) =    -38.03251  eV     1   --> A_1  D_1  S_1  
     e(  2 -  2) =    -12.69594  eV     1   --> A_1  D_1  S_1  
     e(  3 -  3) =    -12.27545  eV     1   --> B_2  D_4  S_4  
     e(  4 -  4) =    -12.04667  eV     1   --> B_1  D_3  S_3  
     e(  5 -  5) =      9.92098  eV     1   --> A_1  D_1  S_1  
     e(  6 -  6) =     14.63961  eV     1   --> A_1  D_1  S_1  
     e(  7 -  7) =     17.24037  eV     1   --> B_2  D_4  S_4  
     e(  8 -  8) =     18.00802  eV     1   --> A_1  D_1  S_1  
     e(  9 -  9) =     18.65216  eV     1   --> B_1  D_3  S_3  
     e( 10 - 10) =     23.17325  eV     1   --> A_2  D_2  S_2  
     e( 11 - 11) =     24.69754  eV     1   --> A_1  D_1  S_1  
     e( 12 - 12) =     25.05948  eV     1   --> B_1  D_3  S_3  
     e( 13 - 13) =     26.14885  eV     1   --> B_2  D_4  S_4  
     e( 14 - 14) =     31.48472  eV     1   --> A_1  D_1  S_1  
     e( 15 - 15) =     31.73805  eV     1   --> B_2  D_4  S_4  
     e( 16 - 16) =     34.37196  eV     1   --> A_1  D_1  S_1  
     e( 17 - 17) =     36.50824  eV     1   --> A_1  D_1  S_1  
     e( 18 - 18) =     36.88660  eV     1   --> B_1  D_3  S_3  
     e( 19 - 19) =     43.88621  eV     1   --> B_1  D_3  S_3  
     e( 20 - 20) =     44.44333  eV     1   --> A_1  D_1  S_1  

 **************************************************************************

 **************************************************************************

                    xk=(   0.00000,   0.40415,   0.00000  )

     Band symmetry, C_2v (mm2)  point group:

     e(  1 -  1) =    -38.02753  eV     1   --> A_1  D_1  S_1  
     e(  2 -  2) =    -12.73028  eV     1   --> A_1  D_1  S_1  
     e(  3 -  3) =    -12.26891  eV     1   --> B_2  D_4  S_4  
     e(  4 -  4) =    -12.05486  eV     1   --> B_1  D_3  S_3  
     e(  5 -  5) =     10.06396  eV     1   --> A_1  D_1  S_1  
     e(  6 -  6) =     14.47966  eV     1   --> A_1  D_1  S_1  
     e(  7 -  7) =     17.16861  eV     1   --> B_2  D_4  S_4  
     e(  8 -  8) =     17.94920  eV     1   --> A_1  D_1  S_1  
     e(  9 -  9) =     18.65758  eV     1   --> B_1  D_3  S_3  
     e( 10 - 10) =     23.14066  eV     1   --> A_2  D_2  S_2  
     e( 11 - 11) =     24.85441  eV     1   --> A_1  D_1  S_1  
     e( 12 - 12) =     25.11201  eV     1   --> B_1  D_3  S_3  
     e( 13 - 13) =     26.08451  eV     1   --> B_2  D_4  S_4  
     e( 14 - 14) =     31.46379  eV     1   --> A_1  D_1  S_1  
     e( 15 - 15) =     31.93536  eV     1   --> B_2  D_4  S_4  
     e( 16 - 16) =     34.23219  eV     1   --> A_1  D_1  S_1  
     e( 17 - 17) =     36.86061  eV     1   --> A_1  D_1  S_1  
     e( 18 - 18) =     37.27302  eV     1   --> B_1  D_3  S_3  
     e( 19 - 19) =     43.53418  eV     1   --> B_1  D_3  S_3  
     e( 20 - 20) =     44.25167  eV     1   --> A_1  D_1  S_1  

 **************************************************************************

 **************************************************************************

                    xk=(   0.00000,   0.41858,   0.00000  )

     Band symmetry, C_2v (mm2)  point group:

     e(  1 -  1) =    -38.02282  eV     1   --> A_1  D_1  S_1  
     e(  2 -  2) =    -12.76258  eV     1   --> A_1  D_1  S_1  
     e(  3 -  3) =    -12.26272  eV     1   --> B_2  D_4  S_4  
     e(  4 -  4) =    -12.06258  eV     1   --> B_1  D_3  S_3  
     e(  5 -  5) =     10.20772  eV     1   --> A_1  D_1  S_1  
     e(  6 -  6) =     14.32117  eV     1   --> A_1  D_1  S_1  
     e(  7 -  7) =     17.10226  eV     1   --> B_2  D_4  S_4  
     e(  8 -  8) =     17.88911  eV     1   --> A_1  D_1  S_1  
     e(  9 -  9) =     18.66103  eV     1   --> B_1  D_3  S_3  
     e( 10 - 10) =     23.11011  eV     1   --> A_2  D_2  S_2  
     e( 11 - 11) =     25.02436  eV     1   --> A_1  D_1  S_1  
     e( 12 - 12) =     25.16818  eV     1   --> B_1  D_3  S_3  
     e( 13 - 13) =     26.01913  eV     1   --> B_2  D_4  S_4  
     e( 14 - 14) =     31.42746  eV     1   --> A_1  D_1  S_1  
     e( 15 - 15) =     32.13577  eV     1   --> B_2  D_4  S_4  
     e( 16 - 16) =     34.09138  eV     1   --> A_1  D_1  S_1  
     e( 17 - 17) =     37.20966  eV     1   --> A_1  D_1  S_1  
     e( 18 - 18) =     37.65640  eV     1   --> B_1  D_3  S_3  
     e( 19 - 19) =     43.20306  eV     1   --> B_1  D_3  S_3  
     e( 20 - 20) =     44.06173  eV     1   --> A_1  D_1  S_1  

 **************************************************************************

 **************************************************************************

                    xk=(   0.00000,   0.43301,   0.00000  )

     Band symmetry, C_2v (mm2)  point group:

     e(  1 -  1) =    -38.01842  eV     1   --> A_1  D_1  S_1  
     e(  2 -  2) =    -12.79268  eV     1   --> A_1  D_1  S_1  
     e(  3 -  3) =    -12.25693  eV     1   --> B_2  D_4  S_4  
     e(  4 -  4) =    -12.06979  eV     1   --> B_1  D_3  S_3  
     e(  5 -  5) =     10.35159  eV     1   --> A_1  D_1  S_1  
     e(  6 -  6) =     14.16461  eV     1   --> A_1  D_1  S_1  
     e(  7 -  7) =     17.04141  eV     1   --> B_2  D_4  S_4  
     e(  8 -  8) =     17.82926  eV     1   --> A_1  D_1  S_1  
     e(  9 -  9) =     18.66283  eV     1   --> B_1  D_3  S_3  
     e( 10 - 10) =     23.08173  eV     1   --> A_2  D_2  S_2  
     e( 11 - 11) =     25.20453  eV     1   --> A_1  D_1  S_1  
     e( 12 - 12) =     25.22649  eV     1   --> B_1  D_3  S_3  
     e( 13 - 13) =     25.95461  eV     1   --> B_2  D_4  S_4  
     e( 14 - 14) =     31.37481  eV     1   --> A_1  D_1  S_1  
     e( 15 - 15) =     32.33566  eV     1   --> B_2  D_4  S_4  
     e( 16 - 16) =     33.95420  eV     1   --> A_1  D_1  S_1  
     e( 17 - 17) =     37.55314  eV     1   --> A_1  D_1  S_1  
     e( 18 - 18) =     38.03477  eV     1   --> B_1  D_3  S_3  
     e( 19 - 19) =     42.89401  eV     1   --> B_1  D_3  S_3  
     e( 20 - 20) =     43.87343  eV     1   --> A_1  D_1  S_1  

 **************************************************************************

 **************************************************************************

                    xk=(   0.00000,   0.44745,   0.00000  )

     Band symmetry, C_2v (mm2)  point group:

     e(  1 -  1) =    -38.01434  eV     1   --> A_1  D_1  S_1  
     e(  2 -  2) =    -12.82041  eV     1   --> A_1  D_1  S_1  
     e(  3 -  3) =    -12.25157  eV     1   --> B_2  D_4  S_4  
     e(  4 -  4) =    -12.07645  eV     1   --> B_1  D_3  S_3  
     e(  5 -  5) =     10.49475  eV     1   --> A_1  D_1  S_1  
     e(  6 -  6) =     14.01060  eV     1   --> A_1  D_1  S_1  
     e(  7 -  7) =     16.98614  eV     1   --> B_2  D_4  S_4  
     e(  8 -  8) =     17.77103  eV     1   --> A_1  D_1  S_1  
     e(  9 -  9) =     18.66329  eV     1   --> B_1  D_3  S_3  
     e( 10 - 10) =     23.05567  eV     1   --> A_2  D_2  S_2  
     e( 11 - 11) =     25.28541  eV     1   --> B_1  D_3  S_3  
     e( 12 - 12) =     25.39180  eV     1   --> A_1  D_1  S_1  
     e( 13 - 13) =     25.89254  eV     1   --> B_2  D_4  S_4  
     e( 14 - 14) =     31.30548  eV     1   --> A_1  D_1  S_1  
     e( 15 - 15) =     32.53148  eV     1   --> B_2  D_4  S_4  
     e( 16 - 16) =     33.82489  eV     1   --> A_1  D_1  S_1  
     e( 17 - 17) =     37.88887  eV     1   --> A_1  D_1  S_1  
     e( 18 - 18) =     38.40570  eV     1   --> B_1  D_3  S_3  
     e( 19 - 19) =     42.60821  eV     1   --> B_1  D_3  S_3  
     e( 20 - 20) =     43.68667  eV     1   --> A_1  D_1  S_1  

 **************************************************************************

 **************************************************************************

                    xk=(   0.00000,   0.46188,   0.00000  )

     Band symmetry, C_2v (mm2)  point group:

     e(  1 -  1) =    -38.01062  eV     1   --> A_1  D_1  S_1  
     e(  2 -  2) =    -12.84562  eV     1   --> A_1  D_1  S_1  
     e(  3 -  3) =    -12.24668  eV     1   --> B_2  D_4  S_4  
     e(  4 -  4) =    -12.08251  eV     1   --> B_1  D_3  S_3  
     e(  5 -  5) =     10.63616  eV     1   --> A_1  D_1  S_1  
     e(  6 -  6) =     13.86012  eV     1   --> A_1  D_1  S_1  
     e(  7 -  7) =     16.93653  eV     1   --> B_2  D_4  S_4  
     e(  8 -  8) =     17.71570  eV     1   --> A_1  D_1  S_1  
     e(  9 -  9) =     18.66273  eV     1   --> B_1  D_3  S_3  
     e( 10 - 10) =     23.03205  eV     1   --> A_2  D_2  S_2  
     e( 11 - 11) =     25.34342  eV     1   --> B_1  D_3  S_3  
     e( 12 - 12) =     25.58274  eV     1   --> A_1  D_1  S_1  
     e( 13 - 13) =     25.83423  eV     1   --> B_2  D_4  S_4  
     e( 14 - 14) =     31.22014  eV     1   --> A_1  D_1  S_1  
     e( 15 - 15) =     32.71974  eV     1   --> B_2  D_4  S_4  
     e( 16 - 16) =     33.70859  eV     1   --> A_1  D_1  S_1  
     e( 17 - 17) =     38.21476  eV     1   --> A_1  D_1  S_1  
     e( 18 - 18) =     38.76617  eV     1   --> B_1  D_3  S_3  
     e( 19 - 19) =     42.34670  eV     1   --> B_1  D_3  S_3  
     e( 20 - 20) =     43.50302  eV     1   --> A_1  D_1  S_1  

 **************************************************************************

 **************************************************************************

                    xk=(   0.00000,   0.47631,   0.00000  )

     Band symmetry, C_2v (mm2)  point group:

     e(  1 -  1) =    -38.00728  eV     1   --> A_1  D_1  S_1  
     e(  2 -  2) =    -12.86819  eV     1   --> A_1  D_1  S_1  
     e(  3 -  3) =    -12.24229  eV     1   --> B_2  D_4  S_4  
     e(  4 -  4) =    -12.08795  eV     1   --> B_1  D_3  S_3  
     e(  5 -  5) =     10.77429  eV     1   --> A_1  D_1  S_1  
     e(  6 -  6) =     13.71412  eV     1   --> A_1  D_1  S_1  
     e(  7 -  7) =     16.89262  eV     1   --> B_2  D_4  S_4  
     e(  8 -  8) =     17.66435  eV     1   --> A_1  D_1  S_1  
     e(  9 -  9) =     18.66132  eV     1   --> B_1  D_3  S_3  
     e( 10 - 10) =     23.01095  eV     1   --> A_2  D_2  S_2  
     e( 11 - 11) =     25.39889  eV     1   --> B_1  D_3  S_3  
     e( 12 - 12) =     25.77319  eV     1   --> A_1  D_1  S_1  
     e( 13 - 13) =     25.78070  eV     1   --> B_2  D_4  S_4  
     e( 14 - 14) =     31.12057  eV     1   --> A_1  D_1  S_1  
     e( 15 - 15) =     32.89698  eV     1   --> B_2  D_4  S_4  
     e( 16 - 16) =     33.60450  eV     1   --> A_1  D_1  S_1  
     e( 17 - 17) =     38.52734  eV     1   --> A_1  D_1  S_1  
     e( 18 - 18) =     39.11050  eV     1   --> B_1  D_3  S_3  
     e( 19 - 19) =     42.11040  eV     1   --> B_1  D_3  S_3  
     e( 20 - 20) =     43.32019  eV     1   --> A_1  D_1  S_1  

 **************************************************************************

 **************************************************************************

                    xk=(   0.00000,   0.49075,   0.00000  )

     Band symmetry, C_2v (mm2)  point group:

     e(  1 -  1) =    -38.00434  eV     1   --> A_1  D_1  S_1  
     e(  2 -  2) =    -12.88798  eV     1   --> A_1  D_1  S_1  
     e(  3 -  3) =    -12.23843  eV     1   --> B_2  D_4  S_4  
     e(  4 -  4) =    -12.09272  eV     1   --> B_1  D_3  S_3  
     e(  5 -  5) =     10.90761  eV     1   --> A_1  D_1  S_1  
     e(  6 -  6) =     13.57445  eV     1   --> A_1  D_1  S_1  
     e(  7 -  7) =     16.85447  eV     1   --> B_2  D_4  S_4  
     e(  8 -  8) =     17.61799  eV     1   --> A_1  D_1  S_1  
     e(  9 -  9) =     18.65960  eV     1   --> B_1  D_3  S_3  
     e( 10 - 10) =     22.99249  eV     1   --> A_2  D_2  S_2  
     e( 11 - 11) =     25.45053  eV     1   --> B_1  D_3  S_3  
     e( 12 - 12) =     25.73282  eV     1   --> B_2  D_4  S_4  
     e( 13 - 13) =     25.95861  eV     1   --> A_1  D_1  S_1  
     e( 14 - 14) =     31.01127  eV     1   --> A_1  D_1  S_1  
     e( 15 - 15) =     33.05976  eV     1   --> B_2  D_4  S_4  
     e( 16 - 16) =     33.51580  eV     1   --> A_1  D_1  S_1  
     e( 17 - 17) =     38.82354  eV     1   --> A_1  D_1  S_1  
     e( 18 - 18) =     39.43780  eV     1   --> B_1  D_3  S_3  
     e( 19 - 19) =     41.90007  eV     1   --> B_1  D_3  S_3  
     e( 20 - 20) =     43.14125  eV     1   --> A_1  D_1  S_1  

 **************************************************************************

 **************************************************************************

                    xk=(   0.00000,   0.50518,   0.00000  )

     Band symmetry, C_2v (mm2)  point group:

     e(  1 -  1) =    -38.00182  eV     1   --> A_1  D_1  S_1  
     e(  2 -  2) =    -12.90492  eV     1   --> A_1  D_1  S_1  
     e(  3 -  3) =    -12.23511  eV     1   --> B_2  D_4  S_4  
     e(  4 -  4) =    -12.09681  eV     1   --> B_1  D_3  S_3  
     e(  5 -  5) =     11.03305  eV     1   --> A_1  D_1  S_1  
     e(  6 -  6) =     13.44331  eV     1   --> A_1  D_1  S_1  
     e(  7 -  7) =     16.82200  eV     1   --> B_2  D_4  S_4  
     e(  8 -  8) =     17.57739  eV     1   --> A_1  D_1  S_1  
     e(  9 -  9) =     18.65768  eV     1   --> B_1  D_3  S_3  
     e( 10 - 10) =     22.97673  eV     1   --> A_2  D_2  S_2  
     e( 11 - 11) =     25.49687  eV     1   --> B_1  D_3  S_3  
     e( 12 - 12) =     25.69125  eV     1   --> B_2  D_4  S_4  
     e( 13 - 13) =     26.13347  eV     1   --> A_1  D_1  S_1  
     e( 14 - 14) =     30.89643  eV     1   --> A_1  D_1  S_1  
     e( 15 - 15) =     33.20440  eV     1   --> B_2  D_4  S_4  
     e( 16 - 16) =     33.44287  eV     1   --> A_1  D_1  S_1  
     e( 17 - 17) =     39.09752  eV     1   --> A_1  D_1  S_1  
     e( 18 - 18) =     39.74056  eV     1   --> B_1  D_3  S_3  
     e( 19 - 19) =     41.71591  eV     1   --> B_1  D_3  S_3  
     e( 20 - 20) =     42.96650  eV     1   --> A_1  D_1  S_1  

 **************************************************************************

 **************************************************************************

                    xk=(   0.00000,   0.51962,   0.00000  )

     Band symmetry, C_2v (mm2)  point group:

     e(  1 -  1) =    -37.99974  eV     1   --> A_1  D_1  S_1  
     e(  2 -  2) =    -12.91889  eV     1   --> A_1  D_1  S_1  
     e(  3 -  3) =    -12.23237  eV     1   --> B_2  D_4  S_4  
     e(  4 -  4) =    -12.10019  eV     1   --> B_1  D_3  S_3  
     e(  5 -  5) =     11.14778  eV     1   --> A_1  D_1  S_1  
     e(  6 -  6) =     13.32418  eV     1   --> A_1  D_1  S_1  
     e(  7 -  7) =     16.79511  eV     1   --> B_2  D_4  S_4  
     e(  8 -  8) =     17.54332  eV     1   --> A_1  D_1  S_1  
     e(  9 -  9) =     18.65689  eV     1   --> B_1  D_3  S_3  
     e( 10 - 10) =     22.96374  eV     1   --> A_2  D_2  S_2  
     e( 11 - 11) =     25.53669  eV     1   --> B_1  D_3  S_3  
     e( 12 - 12) =     25.65739  eV     1   --> B_2  D_4  S_4  
     e( 13 - 13) =     26.29161  eV     1   --> A_1  D_1  S_1  
     e( 14 - 14) =     30.78517  eV     1   --> A_1  D_1  S_1  
     e( 15 - 15) =     33.32716  eV     1   --> B_2  D_4  S_4  
     e( 16 - 16) =     33.38615  eV     1   --> A_1  D_1  S_1  
     e( 17 - 17) =     39.34471  eV     1   --> A_1  D_1  S_1  
     e( 18 - 18) =     40.01164  eV     1   --> B_1  D_3  S_3  
     e( 19 - 19) =     41.55870  eV     1   --> B_1  D_3  S_3  
     e( 20 - 20) =     42.80460  eV     1   --> A_1  D_1  S_1  

 **************************************************************************

 **************************************************************************

                    xk=(   0.00000,   0.53405,   0.00000  )

     Band symmetry, C_2v (mm2)  point group:

     e(  1 -  1) =    -37.99810  eV     1   --> A_1  D_1  S_1  
     e(  2 -  2) =    -12.92983  eV     1   --> A_1  D_1  S_1  
     e(  3 -  3) =    -12.23022  eV     1   --> B_2  D_4  S_4  
     e(  4 -  4) =    -12.10283  eV     1   --> B_1  D_3  S_3  
     e(  5 -  5) =     11.24733  eV     1   --> A_1  D_1  S_1  
     e(  6 -  6) =     13.22156  eV     1   --> A_1  D_1  S_1  
     e(  7 -  7) =     16.77445  eV     1   --> B_2  D_4  S_4  
     e(  8 -  8) =     17.51625  eV     1   --> A_1  D_1  S_1  
     e(  9 -  9) =     18.65523  eV     1   --> B_1  D_3  S_3  
     e( 10 - 10) =     22.95359  eV     1   --> A_2  D_2  S_2  
     e( 11 - 11) =     25.56883  eV     1   --> B_1  D_3  S_3  
     e( 12 - 12) =     25.63003  eV     1   --> B_2  D_4  S_4  
     e( 13 - 13) =     26.42603  eV     1   --> A_1  D_1  S_1  
     e( 14 - 14) =     30.68550  eV     1   --> A_1  D_1  S_1  
     e( 15 - 15) =     33.34288  eV     1   --> A_1  D_1  S_1  
     e( 16 - 16) =     33.42703  eV     1   --> B_2  D_4  S_4  
     e( 17 - 17) =     39.55673  eV     1   --> A_1  D_1  S_1  
     e( 18 - 18) =     40.24473  eV     1   --> B_1  D_3  S_3  
     e( 19 - 19) =     41.42754  eV     1   --> B_1  D_3  S_3  
     e( 20 - 20) =     42.66144  eV     1   --> A_1  D_1  S_1  

 **************************************************************************

 **************************************************************************

                    xk=(   0.00000,   0.54848,   0.00000  )

     Band symmetry, C_2v (mm2)  point group:

     e(  1 -  1) =    -37.99692  eV     1   --> A_1  D_1  S_1  
     e(  2 -  2) =    -12.93769  eV     1   --> A_1  D_1  S_1  
     e(  3 -  3) =    -12.22867  eV     1   --> B_2  D_4  S_4  
     e(  4 -  4) =    -12.10474  eV     1   --> B_1  D_3  S_3  
     e(  5 -  5) =     11.32589  eV     1   --> A_1  D_1  S_1  
     e(  6 -  6) =     13.14143  eV     1   --> A_1  D_1  S_1  
     e(  7 -  7) =     16.75971  eV     1   --> B_2  D_4  S_4  
     e(  8 -  8) =     17.49667  eV     1   --> A_1  D_1  S_1  
     e(  9 -  9) =     18.65397  eV     1   --> B_1  D_3  S_3  
     e( 10 - 10) =     22.94630  eV     1   --> A_2  D_2  S_2  
     e( 11 - 11) =     25.59246  eV     1   --> B_1  D_3  S_3  
     e( 12 - 12) =     25.61158  eV     1   --> B_2  D_4  S_4  
     e( 13 - 13) =     26.52947  eV     1   --> A_1  D_1  S_1  
     e( 14 - 14) =     30.60616  eV     1   --> A_1  D_1  S_1  
     e( 15 - 15) =     33.31370  eV     1   --> A_1  D_1  S_1  
     e( 16 - 16) =     33.50037  eV     1   --> B_2  D_4  S_4  
     e( 17 - 17) =     39.72238  eV     1   --> A_1  D_1  S_1  
     e( 18 - 18) =     40.42979  eV     1   --> B_1  D_3  S_3  
     e( 19 - 19) =     41.32373  eV     1   --> B_1  D_3  S_3  
     e( 20 - 20) =     42.55203  eV     1   --> A_1  D_1  S_1  

 **************************************************************************

 **************************************************************************

                    xk=(   0.00000,   0.56292,   0.00000  )

     Band symmetry, C_2v (mm2)  point group:

     e(  1 -  1) =    -37.99621  eV     1   --> A_1  D_1  S_1  
     e(  2 -  2) =    -12.94242  eV     1   --> A_1  D_1  S_1  
     e(  3 -  3) =    -12.22774  eV     1   --> B_2  D_4  S_4  
     e(  4 -  4) =    -12.10588  eV     1   --> B_1  D_3  S_3  
     e(  5 -  5) =     11.37655  eV     1   --> A_1  D_1  S_1  
     e(  6 -  6) =     13.08949  eV     1   --> A_1  D_1  S_1  
     e(  7 -  7) =     16.75083  eV     1   --> B_2  D_4  S_4  
     e(  8 -  8) =     17.48478  eV     1   --> A_1  D_1  S_1  
     e(  9 -  9) =     18.65315  eV     1   --> B_1  D_3  S_3  
     e( 10 - 10) =     22.94192  eV     1   --> A_2  D_2  S_2  
     e( 11 - 11) =     25.59962  eV     1   --> B_2  D_4  S_4  
     e( 12 - 12) =     25.60691  eV     1   --> B_1  D_3  S_3  
     e( 13 - 13) =     26.59474  eV     1   --> A_1  D_1  S_1  
     e( 14 - 14) =     30.55458  eV     1   --> A_1  D_1  S_1  
     e( 15 - 15) =     33.29603  eV     1   --> A_1  D_1  S_1  
     e( 16 - 16) =     33.54521  eV     1   --> B_2  D_4  S_4  
     e( 17 - 17) =     39.82902  eV     1   --> A_1  D_1  S_1  
     e( 18 - 18) =     40.55384  eV     1   --> B_1  D_3  S_3  
     e( 19 - 19) =     41.25224  eV     1   --> B_1  D_3  S_3  
     e( 20 - 20) =     42.47577  eV     1   --> A_1  D_1  S_1  

 **************************************************************************

 **************************************************************************

                    xk=(   0.00000,   0.57735,   0.00000  )

     point group D_2h (mmm) 
     there are  8 classes
     the character table:

       E     C2    C2'   C2''  i     s_v   s_v'  s_v''
A_g    1.00  1.00  1.00  1.00  1.00  1.00  1.00  1.00
B_1g   1.00  1.00 -1.00 -1.00  1.00  1.00 -1.00 -1.00
B_2g   1.00 -1.00  1.00 -1.00  1.00 -1.00  1.00 -1.00
B_3g   1.00 -1.00 -1.00  1.00  1.00 -1.00 -1.00  1.00
A_u    1.00  1.00  1.00  1.00 -1.00 -1.00 -1.00 -1.00
B_1u   1.00  1.00 -1.00 -1.00 -1.00 -1.00  1.00  1.00
B_2u   1.00 -1.00  1.00 -1.00 -1.00  1.00 -1.00  1.00
B_3u   1.00 -1.00 -1.00  1.00 -1.00  1.00  1.00 -1.00

     the symmetry operations in each class and the name of the first element:

     E        1
                                                                 
     C2       2
                                                                 
     C2'      4
                                                                 
     C2''     3
                                                                 
     i        5
                                                                 
     s_v      6
                                                                 
     s_v'     8
                                                                 
     s_v''    7
                                                                 

     Band symmetry, D_2h (mmm)  point group:

     e(  1 -  1) =    -37.99598  eV     1   --> A_g            
     e(  2 -  2) =    -12.94400  eV     1   --> B_3u           
     e(  3 -  3) =    -12.22743  eV     1   --> B_1u           
     e(  4 -  4) =    -12.10626  eV     1   --> B_2u           
     e(  5 -  5) =     11.39415  eV     1   --> A_g            
     e(  6 -  6) =     13.07146  eV     1   --> B_3u           
     e(  7 -  7) =     16.74787  eV     1   --> B_2g           
     e(  8 -  8) =     17.48080  eV     1   --> A_g            
     e(  9 -  9) =     18.65287  eV     1   --> B_2u           
     e( 10 - 10) =     22.94046  eV     1   --> B_3g           
     e( 11 - 11) =     25.59562  eV     1   --> B_1u           
     e( 12 - 12) =     25.61177  eV     1   --> B_1g           
     e( 13 - 13) =     26.61711  eV     1   --> A_g            
     e( 14 - 14) =     30.53669  eV     1   --> B_3u           
     e( 15 - 15) =     33.29021  eV     1   --> A_g            
     e( 16 - 16) =     33.56030  eV     1   --> B_2g           
     e( 17 - 17) =     39.86605  eV     1   --> A_g            
     e( 18 - 18) =     40.59887  eV     1   --> B_1g           
     e( 19 - 19) =     41.22545  eV     1   --> B_2u           
     e( 20 - 20) =     42.44893  eV     1   --> B_3u           

 **************************************************************************

 **************************************************************************

                    xk=(   0.01667,   0.57735,   0.00000  )

     point group C_2v (mm2) 
     there are  4 classes
     the character table:

       E     C2    s_v   s_v' 
A_1    1.00  1.00  1.00  1.00
A_2    1.00  1.00 -1.00 -1.00
B_1    1.00 -1.00  1.00 -1.00
B_2    1.00 -1.00 -1.00  1.00

     the symmetry operations in each class and the name of the first element:

     E        1
                                                                 
     C2       2
                                                                 
     s_v      4
                                                                 
     s_v'     3
                                                                 

     Band symmetry, C_2v (mm2)  point group:

     e(  1 -  1) =    -37.99587  eV     1   --> A_1  D_1  S_1  
     e(  2 -  2) =    -12.94307  eV     1   --> B_2  D_4  S_4  
     e(  3 -  3) =    -12.22729  eV     1   --> B_1  D_3  S_3  
     e(  4 -  4) =    -12.10828  eV     1   --> A_1  D_1  S_1  
     e(  5 -  5) =     11.40023  eV     1   --> A_1  D_1  S_1  
     e(  6 -  6) =     13.07263  eV     1   --> B_2  D_4  S_4  
     e(  7 -  7) =     16.75217  eV     1   --> A_2  D_2  S_2  
     e(  8 -  8) =     17.44493  eV     1   --> A_1  D_1  S_1  
     e(  9 -  9) =     18.68859  eV     1   --> A_1  D_1  S_1  
     e( 10 - 10) =     22.88858  eV     1   --> B_1  D_3  S_3  
     e( 11 - 11) =     25.59236  eV     1   --> B_2  D_4  S_4  
     e( 12 - 12) =     25.65527  eV     1   --> B_1  D_3  S_3  
     e( 13 - 13) =     26.60796  eV     1   --> A_1  D_1  S_1  
     e( 14 - 14) =     30.56408  eV     1   --> B_2  D_4  S_4  
     e( 15 - 15) =     33.30588  eV     1   --> A_1  D_1  S_1  
     e( 16 - 16) =     33.55500  eV     1   --> A_2  D_2  S_2  
     e( 17 - 17) =     39.83577  eV     1   --> A_1  D_1  S_1  
     e( 18 - 18) =     40.59024  eV     1   --> B_2  D_4  S_4  
     e( 19 - 19) =     41.24905  eV     1   --> A_1  D_1  S_1  
     e( 20 - 20) =     42.45779  eV     1   --> B_2  D_4  S_4  

 **************************************************************************

 **************************************************************************

                    xk=(   0.03333,   0.57735,   0.00000  )

     Band symmetry, C_2v (mm2)  point group:

     e(  1 -  1) =    -37.99556  eV     1   --> A_1  D_1  S_1  
     e(  2 -  2) =    -12.94031  eV     1   --> B_2  D_4  S_4  
     e(  3 -  3) =    -12.22689  eV     1   --> B_1  D_3  S_3  
     e(  4 -  4) =    -12.11429  eV     1   --> A_1  D_1  S_1  
     e(  5 -  5) =     11.41836  eV     1   --> A_1  D_1  S_1  
     e(  6 -  6) =     13.07629  eV     1   --> B_2  D_4  S_4  
     e(  7 -  7) =     16.76506  eV     1   --> A_2  D_2  S_2  
     e(  8 -  8) =     17.34755  eV     1   --> A_1  D_1  S_1  
     e(  9 -  9) =     18.78473  eV     1   --> A_1  D_1  S_1  
     e( 10 - 10) =     22.74521  eV     1   --> B_1  D_3  S_3  
     e( 11 - 11) =     25.53554  eV     1   --> B_2  D_4  S_4  
     e( 12 - 12) =     25.82076  eV     1   --> B_1  D_3  S_3  
     e( 13 - 13) =     26.58059  eV     1   --> A_1  D_1  S_1  
     e( 14 - 14) =     30.64482  eV     1   --> B_2  D_4  S_4  
     e( 15 - 15) =     33.35189  eV     1   --> A_1  D_1  S_1  
     e( 16 - 16) =     33.53916  eV     1   --> A_2  D_2  S_2  
     e( 17 - 17) =     39.75162  eV     1   --> A_1  D_1  S_1  
     e( 18 - 18) =     40.56811  eV     1   --> B_2  D_4  S_4  
     e( 19 - 19) =     41.31251  eV     1   --> A_1  D_1  S_1  
     e( 20 - 20) =     42.48286  eV     1   --> B_2  D_4  S_4  

 **************************************************************************

 **************************************************************************

                    xk=(   0.05000,   0.57735,   0.00000  )

     Band symmetry, C_2v (mm2)  point group:

     e(  1 -  1) =    -37.99505  eV     1   --> A_1  D_1  S_1  
     e(  2 -  2) =    -12.93572  eV     1   --> B_2  D_4  S_4  
     e(  3 -  3) =    -12.22623  eV     1   --> B_1  D_3  S_3  
     e(  4 -  4) =    -12.12423  eV     1   --> A_1  D_1  S_1  
     e(  5 -  5) =     11.44858  eV     1   --> A_1  D_1  S_1  
     e(  6 -  6) =     13.08211  eV     1   --> B_2  D_4  S_4  
     e(  7 -  7) =     16.78653  eV     1   --> A_2  D_2  S_2  
     e(  8 -  8) =     17.20817  eV     1   --> A_1  D_1  S_1  
     e(  9 -  9) =     18.92388  eV     1   --> A_1  D_1  S_1  
     e( 10 - 10) =     22.53698  eV     1   --> B_1  D_3  S_3  
     e( 11 - 11) =     25.44509  eV     1   --> B_2  D_4  S_4  
     e( 12 - 12) =     26.06752  eV     1   --> B_1  D_3  S_3  
     e( 13 - 13) =     26.53521  eV     1   --> A_1  D_1  S_1  
     e( 14 - 14) =     30.77503  eV     1   --> B_2  D_4  S_4  
     e( 15 - 15) =     33.42944  eV     1   --> A_1  D_1  S_1  
     e( 16 - 16) =     33.51288  eV     1   --> A_2  D_2  S_2  
     e( 17 - 17) =     39.62773  eV     1   --> A_1  D_1  S_1  
     e( 18 - 18) =     40.52711  eV     1   --> B_2  D_4  S_4  
     e( 19 - 19) =     41.40076  eV     1   --> A_1  D_1  S_1  
     e( 20 - 20) =     42.52479  eV     1   --> B_2  D_4  S_4  

 **************************************************************************

 **************************************************************************

                    xk=(   0.06667,   0.57735,   0.00000  )

     Band symmetry, C_2v (mm2)  point group:

     e(  1 -  1) =    -37.99436  eV     1   --> A_1  D_1  S_1  
     e(  2 -  2) =    -12.92932  eV     1   --> B_2  D_4  S_4  
     e(  3 -  3) =    -12.22531  eV     1   --> B_1  D_3  S_3  
     e(  4 -  4) =    -12.13795  eV     1   --> A_1  D_1  S_1  
     e(  5 -  5) =     11.49050  eV     1   --> A_1  D_1  S_1  
     e(  6 -  6) =     13.08977  eV     1   --> B_2  D_4  S_4  
     e(  7 -  7) =     16.81656  eV     1   --> A_2  D_2  S_2  
     e(  8 -  8) =     17.04226  eV     1   --> A_1  D_1  S_1  
     e(  9 -  9) =     19.08969  eV     1   --> A_1  D_1  S_1  
     e( 10 - 10) =     22.28891  eV     1   --> B_1  D_3  S_3  
     e( 11 - 11) =     25.32627  eV     1   --> B_2  D_4  S_4  
     e( 12 - 12) =     26.36913  eV     1   --> B_1  D_3  S_3  
     e( 13 - 13) =     26.47208  eV     1   --> A_1  D_1  S_1  
     e( 14 - 14) =     30.94919  eV     1   --> B_2  D_4  S_4  
     e( 15 - 15) =     33.47624  eV     1   --> A_2  D_2  S_2  
     e( 16 - 16) =     33.53725  eV     1   --> A_1  D_1  S_1  
     e( 17 - 17) =     39.47791  eV     1   --> A_1  D_1  S_1  
     e( 18 - 18) =     40.46750  eV     1   --> B_2  D_4  S_4  
     e( 19 - 19) =     41.49756  eV     1   --> A_1  D_1  S_1  
     e( 20 - 20) =     42.57938  eV     1   --> B_2  D_4  S_4  

 **************************************************************************

 **************************************************************************

                    xk=(   0.08333,   0.57735,   0.00000  )

     Band symmetry, C_2v (mm2)  point group:

     e(  1 -  1) =    -37.99347  eV     1   --> A_1  D_1  S_1  
     e(  2 -  2) =    -12.92113  eV     1   --> B_2  D_4  S_4  
     e(  3 -  3) =    -12.22417  eV     1   --> B_1  D_3  S_3  
     e(  4 -  4) =    -12.15527  eV     1   --> A_1  D_1  S_1  
     e(  5 -  5) =     11.54422  eV     1   --> A_1  D_1  S_1  
     e(  6 -  6) =     13.10027  eV     1   --> B_2  D_4  S_4  
     e(  7 -  7) =     16.85515  eV     1   --> A_2  D_2  S_2  
     e(  8 -  8) =     16.85997  eV     1   --> A_1  D_1  S_1  
     e(  9 -  9) =     19.27434  eV     1   --> A_1  D_1  S_1  
     e( 10 - 10) =     22.01873  eV     1   --> B_1  D_3  S_3  
     e( 11 - 11) =     25.18531  eV     1   --> B_2  D_4  S_4  
     e( 12 - 12) =     26.39192  eV     1   --> A_1  D_1  S_1  
     e( 13 - 13) =     26.70754  eV     1   --> B_1  D_3  S_3  
     e( 14 - 14) =     31.16121  eV     1   --> B_2  D_4  S_4  
     e( 15 - 15) =     33.42967  eV     1   --> A_2  D_2  S_2  
     e( 16 - 16) =     33.67468  eV     1   --> A_1  D_1  S_1  
     e( 17 - 17) =     39.31203  eV     1   --> A_1  D_1  S_1  
     e( 18 - 18) =     40.40158  eV     1   --> B_2  D_4  S_4  
     e( 19 - 19) =     41.59044  eV     1   --> A_1  D_1  S_1  
     e( 20 - 20) =     42.64628  eV     1   --> B_2  D_4  S_4  

 **************************************************************************

 **************************************************************************

                    xk=(   0.10000,   0.57735,   0.00000  )

     Band symmetry, C_2v (mm2)  point group:

     e(  1 -  1) =    -37.99243  eV     1   --> A_1  D_1  S_1  
     e(  2 -  2) =    -12.91118  eV     1   --> B_2  D_4  S_4  
     e(  3 -  3) =    -12.22282  eV     1   --> B_1  D_3  S_3  
     e(  4 -  4) =    -12.17597  eV     1   --> A_1  D_1  S_1  
     e(  5 -  5) =     11.60935  eV     1   --> A_1  D_1  S_1  
     e(  6 -  6) =     13.11343  eV     1   --> B_2  D_4  S_4  
     e(  7 -  7) =     16.66553  eV     1   --> A_1  D_1  S_1  
     e(  8 -  8) =     16.90257  eV     1   --> A_2  D_2  S_2  
     e(  9 -  9) =     19.47222  eV     1   --> A_1  D_1  S_1  
     e( 10 - 10) =     21.73779  eV     1   --> B_1  D_3  S_3  
     e( 11 - 11) =     25.02782  eV     1   --> B_2  D_4  S_4  
     e( 12 - 12) =     26.29545  eV     1   --> A_1  D_1  S_1  
     e( 13 - 13) =     27.07085  eV     1   --> B_1  D_3  S_3  
     e( 14 - 14) =     31.40513  eV     1   --> B_2  D_4  S_4  
     e( 15 - 15) =     33.37484  eV     1   --> A_2  D_2  S_2  
     e( 16 - 16) =     33.84059  eV     1   --> A_1  D_1  S_1  
     e( 17 - 17) =     39.13716  eV     1   --> A_1  D_1  S_1  
     e( 18 - 18) =     40.32711  eV     1   --> B_2  D_4  S_4  
     e( 19 - 19) =     41.66888  eV     1   --> A_1  D_1  S_1  
     e( 20 - 20) =     42.70006  eV     1   --> B_1  D_3  S_3  

 **************************************************************************

 **************************************************************************

                    xk=(   0.11667,   0.57735,   0.00000  )

     Band symmetry, C_2v (mm2)  point group:

     e(  1 -  1) =    -37.99125  eV     1   --> A_1  D_1  S_1  
     e(  2 -  2) =    -12.89952  eV     1   --> B_2  D_4  S_4  
     e(  3 -  3) =    -12.22129  eV     1   --> B_1  D_3  S_3  
     e(  4 -  4) =    -12.19976  eV     1   --> A_1  D_1  S_1  
     e(  5 -  5) =     11.68529  eV     1   --> A_1  D_1  S_1  
     e(  6 -  6) =     13.12871  eV     1   --> B_2  D_4  S_4  
     e(  7 -  7) =     16.46233  eV     1   --> A_1  D_1  S_1  
     e(  8 -  8) =     16.95814  eV     1   --> A_2  D_2  S_2  
     e(  9 -  9) =     19.68120  eV     1   --> A_1  D_1  S_1  
     e( 10 - 10) =     21.45314  eV     1   --> B_1  D_3  S_3  
[...]
     e(  9 -  9) =     19.85155  eV     1   --> B_1  D_3  S_3  
     e( 10 - 10) =     21.96752  eV     1   --> A_1  D_1  S_1  
     e( 11 - 11) =     23.73061  eV     1   --> A_1  D_1  S_1  
     e( 12 - 12) =     23.90514  eV     1   --> A_2  D_2  S_2  
     e( 13 - 13) =     24.34612  eV     1   --> B_2  D_4  S_4  
     e( 14 - 14) =     30.45453  eV     1   --> B_1  D_3  S_3  
     e( 15 - 15) =     34.40016  eV     1   --> B_2  D_4  S_4  
     e( 16 - 16) =     34.77439  eV     1   --> A_2  D_2  S_2  
     e( 17 - 17) =     36.90513  eV     1   --> A_2  D_2  S_2  
     e( 18 - 18) =     38.35744  eV     1   --> B_2  D_4  S_4  
     e( 19 - 19) =     40.45210  eV     1   --> A_1  D_1  S_1  
     e( 20 - 20) =     43.58543  eV     1   --> A_1  D_1  S_1  

 **************************************************************************

 **************************************************************************

                    xk=(   0.08333,   0.14434,   0.46550  )

     Band symmetry, C_2v (mm2)  point group:

     e(  1 -  1) =    -38.08124  eV     1   --> A_1  D_1  S_1  
     e(  2 -  2) =    -12.89388  eV     1   --> B_2  D_4  S_4  
     e(  3 -  3) =    -12.01750  eV     1   --> A_1  D_1  S_1  
     e(  4 -  4) =    -11.85906  eV     1   --> B_1  D_3  S_3  
     e(  5 -  5) =     10.65822  eV     1   --> B_2  D_4  S_4  
     e(  6 -  6) =     14.16063  eV     1   --> A_1  D_1  S_1  
     e(  7 -  7) =     18.20994  eV     1   --> A_2  D_2  S_2  
     e(  8 -  8) =     18.55249  eV     1   --> B_2  D_4  S_4  
     e(  9 -  9) =     20.02469  eV     1   --> B_1  D_3  S_3  
     e( 10 - 10) =     21.82807  eV     1   --> A_1  D_1  S_1  
     e( 11 - 11) =     23.66678  eV     1   --> A_2  D_2  S_2  
     e( 12 - 12) =     23.67302  eV     1   --> A_1  D_1  S_1  
     e( 13 - 13) =     24.04003  eV     1   --> B_2  D_4  S_4  
     e( 14 - 14) =     30.19211  eV     1   --> B_1  D_3  S_3  
     e( 15 - 15) =     34.54445  eV     1   --> B_2  D_4  S_4  
     e( 16 - 16) =     34.75500  eV     1   --> A_2  D_2  S_2  
     e( 17 - 17) =     36.76981  eV     1   --> A_2  D_2  S_2  
     e( 18 - 18) =     38.08098  eV     1   --> B_2  D_4  S_4  
     e( 19 - 19) =     40.73096  eV     1   --> A_1  D_1  S_1  
     e( 20 - 20) =     43.96119  eV     1   --> A_1  D_1  S_1  

 **************************************************************************

 **************************************************************************

                    xk=(   0.07500,   0.12990,   0.46550  )

     Band symmetry, C_2v (mm2)  point group:

     e(  1 -  1) =    -38.08634  eV     1   --> A_1  D_1  S_1  
     e(  2 -  2) =    -12.90257  eV     1   --> B_2  D_4  S_4  
     e(  3 -  3) =    -11.98105  eV     1   --> A_1  D_1  S_1  
     e(  4 -  4) =    -11.84940  eV     1   --> B_1  D_3  S_3  
     e(  5 -  5) =     10.66264  eV     1   --> B_2  D_4  S_4  
     e(  6 -  6) =     14.02709  eV     1   --> A_1  D_1  S_1  
     e(  7 -  7) =     18.48554  eV     1   --> A_2  D_2  S_2  
     e(  8 -  8) =     18.75904  eV     1   --> B_2  D_4  S_4  
     e(  9 -  9) =     20.19596  eV     1   --> B_1  D_3  S_3  
     e( 10 - 10) =     21.70109  eV     1   --> A_1  D_1  S_1  
     e( 11 - 11) =     23.42473  eV     1   --> A_2  D_2  S_2  
     e( 12 - 12) =     23.62052  eV     1   --> A_1  D_1  S_1  
     e( 13 - 13) =     23.73454  eV     1   --> B_2  D_4  S_4  
     e( 14 - 14) =     29.93275  eV     1   --> B_1  D_3  S_3  
     e( 15 - 15) =     34.68643  eV     1   --> B_2  D_4  S_4  
     e( 16 - 16) =     34.72023  eV     1   --> A_2  D_2  S_2  
     e( 17 - 17) =     36.66250  eV     1   --> A_2  D_2  S_2  
     e( 18 - 18) =     37.82402  eV     1   --> B_2  D_4  S_4  
     e( 19 - 19) =     40.98183  eV     1   --> A_1  D_1  S_1  
     e( 20 - 20) =     44.34726  eV     1   --> A_1  D_1  S_1  

 **************************************************************************

 **************************************************************************

                    xk=(   0.06667,   0.11547,   0.46550  )

     Band symmetry, C_2v (mm2)  point group:

     e(  1 -  1) =    -38.09102  eV     1   --> A_1  D_1  S_1  
     e(  2 -  2) =    -12.91053  eV     1   --> B_2  D_4  S_4  
     e(  3 -  3) =    -11.94720  eV     1   --> A_1  D_1  S_1  
     e(  4 -  4) =    -11.84079  eV     1   --> B_1  D_3  S_3  
     e(  5 -  5) =     10.66625  eV     1   --> B_2  D_4  S_4  
     e(  6 -  6) =     13.90521  eV     1   --> A_1  D_1  S_1  
     e(  7 -  7) =     18.76244  eV     1   --> A_2  D_2  S_2  
     e(  8 -  8) =     18.97437  eV     1   --> B_2  D_4  S_4  
     e(  9 -  9) =     20.36279  eV     1   --> B_1  D_3  S_3  
     e( 10 - 10) =     21.58690  eV     1   --> A_1  D_1  S_1  
     e( 11 - 11) =     23.17858  eV     1   --> A_2  D_2  S_2  
     e( 12 - 12) =     23.42942  eV     1   --> B_2  D_4  S_4  
     e( 13 - 13) =     23.57321  eV     1   --> A_1  D_1  S_1  
     e( 14 - 14) =     29.67970  eV     1   --> B_1  D_3  S_3  
     e( 15 - 15) =     34.67318  eV     1   --> A_2  D_2  S_2  
     e( 16 - 16) =     34.82440  eV     1   --> B_2  D_4  S_4  
     e( 17 - 17) =     36.58085  eV     1   --> A_2  D_2  S_2  
     e( 18 - 18) =     37.58276  eV     1   --> B_2  D_4  S_4  
     e( 19 - 19) =     41.20413  eV     1   --> A_1  D_1  S_1  
     e( 20 - 20) =     44.73951  eV     1   --> A_1  D_1  S_1  

 **************************************************************************

 **************************************************************************

                    xk=(   0.05833,   0.10104,   0.46550  )

     Band symmetry, C_2v (mm2)  point group:

     e(  1 -  1) =    -38.09524  eV     1   --> A_1  D_1  S_1  
     e(  2 -  2) =    -12.91771  eV     1   --> B_2  D_4  S_4  
     e(  3 -  3) =    -11.91633  eV     1   --> A_1  D_1  S_1  
     e(  4 -  4) =    -11.83321  eV     1   --> B_1  D_3  S_3  
     e(  5 -  5) =     10.66966  eV     1   --> B_2  D_4  S_4  
     e(  6 -  6) =     13.79579  eV     1   --> A_1  D_1  S_1  
     e(  7 -  7) =     19.04018  eV     1   --> A_2  D_2  S_2  
     e(  8 -  8) =     19.19840  eV     1   --> B_2  D_4  S_4  
     e(  9 -  9) =     20.52245  eV     1   --> B_1  D_3  S_3  
     e( 10 - 10) =     21.48573  eV     1   --> A_1  D_1  S_1  
     e( 11 - 11) =     22.92861  eV     1   --> A_2  D_2  S_2  
     e( 12 - 12) =     23.12589  eV     1   --> B_2  D_4  S_4  
     e( 13 - 13) =     23.53122  eV     1   --> A_1  D_1  S_1  
     e( 14 - 14) =     29.43939  eV     1   --> B_1  D_3  S_3  
     e( 15 - 15) =     34.61835  eV     1   --> A_2  D_2  S_2  
     e( 16 - 16) =     34.95832  eV     1   --> B_2  D_4  S_4  
     e( 17 - 17) =     36.52223  eV     1   --> A_2  D_2  S_2  
     e( 18 - 18) =     37.35934  eV     1   --> B_2  D_4  S_4  
     e( 19 - 19) =     41.39930  eV     1   --> A_1  D_1  S_1  
     e( 20 - 20) =     45.13381  eV     1   --> B_1  D_3  S_3  

 **************************************************************************

 **************************************************************************

                    xk=(   0.05000,   0.08660,   0.46550  )

     Band symmetry, C_2v (mm2)  point group:

     e(  1 -  1) =    -38.09897  eV     1   --> A_1  D_1  S_1  
     e(  2 -  2) =    -12.92404  eV     1   --> B_2  D_4  S_4  
     e(  3 -  3) =    -11.88879  eV     1   --> A_1  D_1  S_1  
     e(  4 -  4) =    -11.82666  eV     1   --> B_1  D_3  S_3  
     e(  5 -  5) =     10.67286  eV     1   --> B_2  D_4  S_4  
     e(  6 -  6) =     13.69955  eV     1   --> A_1  D_1  S_1  
     e(  7 -  7) =     19.31753  eV     1   --> A_2  D_2  S_2  
     e(  8 -  8) =     19.43102  eV     1   --> B_2  D_4  S_4  
     e(  9 -  9) =     20.67175  eV     1   --> B_1  D_3  S_3  
     e( 10 - 10) =     21.39775  eV     1   --> A_1  D_1  S_1  
     e( 11 - 11) =     22.67389  eV     1   --> A_2  D_2  S_2  
     e( 12 - 12) =     22.82510  eV     1   --> B_2  D_4  S_4  
     e( 13 - 13) =     23.49464  eV     1   --> A_1  D_1  S_1  
     e( 14 - 14) =     29.21686  eV     1   --> B_1  D_3  S_3  
     e( 15 - 15) =     34.56186  eV     1   --> A_2  D_2  S_2  
     e( 16 - 16) =     35.08725  eV     1   --> B_2  D_4  S_4  
     e( 17 - 17) =     36.48240  eV     1   --> A_2  D_2  S_2  
     e( 18 - 18) =     37.15320  eV     1   --> B_2  D_4  S_4  
     e( 19 - 19) =     41.56779  eV     1   --> A_1  D_1  S_1  
     e( 20 - 20) =     45.51006  eV     1   --> B_1  D_3  S_3  

 **************************************************************************

 **************************************************************************

                    xk=(   0.04167,   0.07217,   0.46550  )

     Band symmetry, C_2v (mm2)  point group:

     e(  1 -  1) =    -38.10218  eV     1   --> A_1  D_1  S_1  
     e(  2 -  2) =    -12.92948  eV     1   --> B_2  D_4  S_4  
     e(  3 -  3) =    -11.86492  eV     1   --> A_1  D_1  S_1  
     e(  4 -  4) =    -11.82113  eV     1   --> B_1  D_3  S_3  
     e(  5 -  5) =     10.67562  eV     1   --> B_2  D_4  S_4  
     e(  6 -  6) =     13.61701  eV     1   --> A_1  D_1  S_1  
     e(  7 -  7) =     19.59464  eV     1   --> A_2  D_2  S_2  
     e(  8 -  8) =     19.67014  eV     1   --> B_2  D_4  S_4  
     e(  9 -  9) =     20.80718  eV     1   --> B_1  D_3  S_3  
     e( 10 - 10) =     21.32313  eV     1   --> A_1  D_1  S_1  
     e( 11 - 11) =     22.41784  eV     1   --> A_2  D_2  S_2  
     e( 12 - 12) =     22.52733  eV     1   --> B_2  D_4  S_4  
     e( 13 - 13) =     23.46355  eV     1   --> A_1  D_1  S_1  
     e( 14 - 14) =     29.01709  eV     1   --> B_1  D_3  S_3  
     e( 15 - 15) =     34.50483  eV     1   --> A_2  D_2  S_2  
     e( 16 - 16) =     35.21112  eV     1   --> B_2  D_4  S_4  
     e( 17 - 17) =     36.45634  eV     1   --> A_2  D_2  S_2  
     e( 18 - 18) =     36.96589  eV     1   --> B_2  D_4  S_4  
     e( 19 - 19) =     41.71007  eV     1   --> A_1  D_1  S_1  
     e( 20 - 20) =     45.89478  eV     1   --> B_1  D_3  S_3  

 **************************************************************************

 **************************************************************************

                    xk=(   0.03333,   0.05774,   0.46550  )

     Band symmetry, C_2v (mm2)  point group:

     e(  1 -  1) =    -38.10482  eV     1   --> A_1  D_1  S_1  
     e(  2 -  2) =    -12.93398  eV     1   --> B_2  D_4  S_4  
     e(  3 -  3) =    -11.84497  eV     1   --> A_1  D_1  S_1  
     e(  4 -  4) =    -11.81661  eV     1   --> B_1  D_3  S_3  
     e(  5 -  5) =     10.67820  eV     1   --> B_2  D_4  S_4  
     e(  6 -  6) =     13.54879  eV     1   --> A_1  D_1  S_1  
     e(  7 -  7) =     19.87021  eV     1   --> A_2  D_2  S_2  
     e(  8 -  8) =     19.91518  eV     1   --> B_2  D_4  S_4  
     e(  9 -  9) =     20.92507  eV     1   --> B_1  D_3  S_3  
     e( 10 - 10) =     21.26195  eV     1   --> A_1  D_1  S_1  
     e( 11 - 11) =     22.16119  eV     1   --> A_2  D_2  S_2  
     e( 12 - 12) =     22.23468  eV     1   --> B_2  D_4  S_4  
     e( 13 - 13) =     23.43805  eV     1   --> A_1  D_1  S_1  
     e( 14 - 14) =     28.84642  eV     1   --> B_1  D_3  S_3  
     e( 15 - 15) =     34.45576  eV     1   --> A_2  D_2  S_2  
     e( 16 - 16) =     35.32807  eV     1   --> B_2  D_4  S_4  
     e( 17 - 17) =     36.44039  eV     1   --> A_2  D_2  S_2  
     e( 18 - 18) =     36.79891  eV     1   --> B_2  D_4  S_4  
     e( 19 - 19) =     41.82740  eV     1   --> A_1  D_1  S_1  
     e( 20 - 20) =     46.28237  eV     1   --> B_1  D_3  S_3  

 **************************************************************************

 **************************************************************************

                    xk=(   0.02500,   0.04330,   0.46550  )

     Band symmetry, C_2v (mm2)  point group:

     e(  1 -  1) =    -38.10691  eV     1   --> A_1  D_1  S_1  
     e(  2 -  2) =    -12.93752  eV     1   --> B_2  D_4  S_4  
     e(  3 -  3) =    -11.82921  eV     1   --> A_1  D_1  S_1  
     e(  4 -  4) =    -11.81311  eV     1   --> B_1  D_3  S_3  
     e(  5 -  5) =     10.68006  eV     1   --> B_2  D_4  S_4  
     e(  6 -  6) =     13.49521  eV     1   --> A_1  D_1  S_1  
     e(  7 -  7) =     20.14023  eV     1   --> A_2  D_2  S_2  
     e(  8 -  8) =     20.16286  eV     1   --> B_2  D_4  S_4  
     e(  9 -  9) =     21.02165  eV     1   --> B_1  D_3  S_3  
     e( 10 - 10) =     21.21430  eV     1   --> A_1  D_1  S_1  
     e( 11 - 11) =     21.90491  eV     1   --> A_2  D_2  S_2  
     e( 12 - 12) =     21.94954  eV     1   --> B_2  D_4  S_4  
     e( 13 - 13) =     23.41812  eV     1   --> A_1  D_1  S_1  
     e( 14 - 14) =     28.70670  eV     1   --> B_1  D_3  S_3  
     e( 15 - 15) =     34.41211  eV     1   --> A_2  D_2  S_2  
     e( 16 - 16) =     35.43504  eV     1   --> B_2  D_4  S_4  
     e( 17 - 17) =     36.43110  eV     1   --> A_2  D_2  S_2  
     e( 18 - 18) =     36.65257  eV     1   --> B_2  D_4  S_4  
     e( 19 - 19) =     41.91779  eV     1   --> A_1  D_1  S_1  
     e( 20 - 20) =     46.66253  eV     1   --> B_1  D_3  S_3  

 **************************************************************************

 **************************************************************************

                    xk=(   0.01667,   0.02887,   0.46550  )

     Band symmetry, C_2v (mm2)  point group:

     e(  1 -  1) =    -38.10841  eV     1   --> A_1  D_1  S_1  
     e(  2 -  2) =    -12.94007  eV     1   --> B_2  D_4  S_4  
     e(  3 -  3) =    -11.81781  eV     1   --> A_1  D_1  S_1  
     e(  4 -  4) =    -11.81061  eV     1   --> B_1  D_3  S_3  
     e(  5 -  5) =     10.68149  eV     1   --> B_2  D_4  S_4  
     e(  6 -  6) =     13.45670  eV     1   --> A_1  D_1  S_1  
     e(  7 -  7) =     20.39920  eV     1   --> A_2  D_2  S_2  
     e(  8 -  8) =     20.40715  eV     1   --> B_2  D_4  S_4  
     e(  9 -  9) =     21.09355  eV     1   --> B_1  D_3  S_3  
     e( 10 - 10) =     21.18022  eV     1   --> A_1  D_1  S_1  
     e( 11 - 11) =     21.65637  eV     1   --> A_2  D_2  S_2  
     e( 12 - 12) =     21.67858  eV     1   --> B_2  D_4  S_4  
     e( 13 - 13) =     23.40388  eV     1   --> A_1  D_1  S_1  
     e( 14 - 14) =     28.60475  eV     1   --> B_1  D_3  S_3  
     e( 15 - 15) =     34.38034  eV     1   --> A_2  D_2  S_2  
     e( 16 - 16) =     35.52623  eV     1   --> B_2  D_4  S_4  
     e( 17 - 17) =     36.42614  eV     1   --> A_2  D_2  S_2  
     e( 18 - 18) =     36.53386  eV     1   --> B_2  D_4  S_4  
     e( 19 - 19) =     41.98340  eV     1   --> A_1  D_1  S_1  
     e( 20 - 20) =     47.01525  eV     1   --> B_1  D_3  S_3  

 **************************************************************************

 **************************************************************************

                    xk=(   0.00833,   0.01443,   0.46550  )

     Band symmetry, C_2v (mm2)  point group:

     e(  1 -  1) =    -38.10932  eV     1   --> A_1  D_1  S_1  
     e(  2 -  2) =    -12.94160  eV     1   --> B_2  D_4  S_4  
     e(  3 -  3) =    -11.81092  eV     1   --> A_1  D_1  S_1  
     e(  4 -  4) =    -11.80911  eV     1   --> B_1  D_3  S_3  
     e(  5 -  5) =     10.68241  eV     1   --> B_2  D_4  S_4  
     e(  6 -  6) =     13.43349  eV     1   --> A_1  D_1  S_1  
     e(  7 -  7) =     20.62613  eV     1   --> A_2  D_2  S_2  
     e(  8 -  8) =     20.62708  eV     1   --> B_2  D_4  S_4  
     e(  9 -  9) =     21.13794  eV     1   --> B_1  D_3  S_3  
     e( 10 - 10) =     21.15977  eV     1   --> A_1  D_1  S_1  
     e( 11 - 11) =     21.43673  eV     1   --> A_2  D_2  S_2  
     e( 12 - 12) =     21.44314  eV     1   --> B_2  D_4  S_4  
     e( 13 - 13) =     23.39532  eV     1   --> A_1  D_1  S_1  
     e( 14 - 14) =     28.54208  eV     1   --> B_1  D_3  S_3  
     e( 15 - 15) =     34.36069  eV     1   --> A_2  D_2  S_2  
     e( 16 - 16) =     35.59115  eV     1   --> B_2  D_4  S_4  
     e( 17 - 17) =     36.42403  eV     1   --> A_2  D_2  S_2  
     e( 18 - 18) =     36.45303  eV     1   --> B_2  D_4  S_4  
     e( 19 - 19) =     42.02277  eV     1   --> A_1  D_1  S_1  
     e( 20 - 20) =     47.29483  eV     1   --> B_1  D_3  S_3  

 **************************************************************************

 **************************************************************************

                    xk=(   0.00000,   0.00000,   0.46550  )

     point group D_6h(6/mmm)
     there are 12 classes
     the character table:

       E     2C6   2C3   C2    3C2'  3C2'' i     2S3   2S6   s_h   3s_d  3s_v 
A_1g   1.00  1.00  1.00  1.00  1.00  1.00  1.00  1.00  1.00  1.00  1.00  1.00
A_2g   1.00  1.00  1.00  1.00 -1.00 -1.00  1.00  1.00  1.00  1.00 -1.00 -1.00
B_1g   1.00 -1.00  1.00 -1.00  1.00 -1.00  1.00 -1.00  1.00 -1.00  1.00 -1.00
B_2g   1.00 -1.00  1.00 -1.00 -1.00  1.00  1.00 -1.00  1.00 -1.00 -1.00  1.00
E_1g   2.00  1.00 -1.00 -2.00  0.00  0.00  2.00  1.00 -1.00 -2.00  0.00  0.00
E_2g   2.00 -1.00 -1.00  2.00  0.00  0.00  2.00 -1.00 -1.00  2.00  0.00  0.00
A_1u   1.00  1.00  1.00  1.00  1.00  1.00 -1.00 -1.00 -1.00 -1.00 -1.00 -1.00
A_2u   1.00  1.00  1.00  1.00 -1.00 -1.00 -1.00 -1.00 -1.00 -1.00  1.00  1.00
B_1u   1.00 -1.00  1.00 -1.00  1.00 -1.00 -1.00  1.00 -1.00  1.00 -1.00  1.00
B_2u   1.00 -1.00  1.00 -1.00 -1.00  1.00 -1.00  1.00 -1.00  1.00  1.00 -1.00
E_1u   2.00  1.00 -1.00 -2.00  0.00  0.00 -2.00 -1.00  1.00  2.00  0.00  0.00
E_2u   2.00 -1.00 -1.00  2.00  0.00  0.00 -2.00  1.00  1.00 -2.00  0.00  0.00

     the symmetry operations in each class and the name of the first element:

     E        1
                                                                 
     2C6      5    6
                                                                 
     2C3      7    8
                                                                 
     C2       2
                                                                 
     3C2'     4   12   11
                                                                 
     3C2''    3    9   10
                                                                 
     i       13
                                                                 
     2S3     17   18
                                                                 
     2S6     19   20
                                                                 
     s_h     14
                                                                 
     3s_d    16   24   23
                                                                 
     3s_v    15   21   22
                                                                 

     Band symmetry, D_6h(6/mmm) point group:

     e(  1 -  1) =    -38.10961  eV     1   --> A_1g           
     e(  2 -  2) =    -12.94210  eV     1   --> A_2u           
     e(  3 -  4) =    -11.80861  eV     2   --> E_1u           
     e(  5 -  5) =     10.68327  eV     1   --> A_2u           
     e(  6 -  6) =     13.42580  eV     1   --> A_1g           
     e(  7 -  8) =     20.73750  eV     2   --> E_1g           
     e(  9 - 10) =     21.15294  eV     2   --> E_2g           
     e( 11 - 12) =     21.32757  eV     2   --> E_2u           
     e( 13 - 13) =     23.39260  eV     1   --> A_1g           
     e( 14 - 14) =     28.52069  eV     1   --> B_2u           
     e( 15 - 15) =     34.35377  eV     1   --> B_1g           
     e( 16 - 16) =     35.61524  eV     1   --> A_2u           
     e( 17 - 18) =     36.42516  eV     2   --> E_1g           
     e( 19 - 19) =     42.03971  eV     1   --> A_1g           
     e( 20 - 20) =     47.41069  eV     1   -->   ?

 **************************************************************************
 
     BANDS        :      6.01s CPU      6.44s WALL

 
   This run was terminated on:  17:18:32  28Apr2022            

=------------------------------------------------------------------------------=
   JOB DONE.
=------------------------------------------------------------------------------=
