
     Program BANDS v.7.0 starts on 28Apr2022 at  3:17:41 

     This program is part of the open-source Quantum ESPRESSO suite
     for quantum simulation of materials; please cite
         "P. Giannozzi et al., J. Phys.:Condens. Matter 21 395502 (2009);
         "P. Giannozzi et al., J. Phys.:Condens. Matter 29 465901 (2017);
         "P. Giannozzi et al., J. Chem. Phys. 152 154105 (2020);
          URL http://www.quantum-espresso.org", 
     in publications or presentations arising from this work. More details at
     http://www.quantum-espresso.org/quote

     Parallel version (MPI), running on     8 processors

     MPI processes distributed on     1 nodes
     R & G space division:  proc/nbgrp/npool/nimage =       8
     2237 MiB available memory on the printing compute node when the environment starts
 

     Reading xml data from directory:

     ./tmp/mob2.save/

     IMPORTANT: XC functional enforced from input :
     Exchange-correlation= PBE
                           (   1   4   3   4   0   0   0)
     Any further DFT definition will be discarded
     Please, verify this is what you really want

 
     Parallelization info
     --------------------
     sticks:   dense  smooth     PW     G-vecs:    dense   smooth      PW
     Min          36      36     11                  525      525     101
     Max          38      38     12                  526      526     102
     Sum         295     295     91                 4205     4205     811
 
     Using Slab Decomposition
 
     Reading collected, re-writing distributed wavefunctions
     high-symmetry point:  0.0000 0.0000 0.0000   x coordinate   0.0000
     high-symmetry point:  0.0000 0.5774 0.0000   x coordinate   0.5774
     high-symmetry point:  0.3333 0.5774 0.0000   x coordinate   0.9107
     high-symmetry point:  0.0000 0.0000 0.0000   x coordinate   1.5774
     high-symmetry point:  0.0000 0.0000 0.4662   x coordinate   2.0435
     high-symmetry point:  0.0000 0.5774 0.4662   x coordinate   2.6209
     high-symmetry point:  0.3333 0.5774 0.4662   x coordinate   2.9542
     high-symmetry point:  0.0000 0.0000 0.4662   x coordinate   3.6209

     Plottable bands (eV) written to file mob2_bands.bands.gnu
     Bands written to file mob2_bands.bands

 **************************************************************************

                    xk=(   0.00000,   0.00000,   0.00000  )

     point group D_6h(6/mmm)
     there are 12 classes
     the character table:

       E     2C6   2C3   C2    3C2'  3C2'' i     2S3   2S6   s_h   3s_d  3s_v 
A_1g   1.00  1.00  1.00  1.00  1.00  1.00  1.00  1.00  1.00  1.00  1.00  1.00
A_2g   1.00  1.00  1.00  1.00 -1.00 -1.00  1.00  1.00  1.00  1.00 -1.00 -1.00
B_1g   1.00 -1.00  1.00 -1.00  1.00 -1.00  1.00 -1.00  1.00 -1.00  1.00 -1.00
B_2g   1.00 -1.00  1.00 -1.00 -1.00  1.00  1.00 -1.00  1.00 -1.00 -1.00  1.00
E_1g   2.00  1.00 -1.00 -2.00  0.00  0.00  2.00  1.00 -1.00 -2.00  0.00  0.00
E_2g   2.00 -1.00 -1.00  2.00  0.00  0.00  2.00 -1.00 -1.00  2.00  0.00  0.00
A_1u   1.00  1.00  1.00  1.00  1.00  1.00 -1.00 -1.00 -1.00 -1.00 -1.00 -1.00
A_2u   1.00  1.00  1.00  1.00 -1.00 -1.00 -1.00 -1.00 -1.00 -1.00  1.00  1.00
B_1u   1.00 -1.00  1.00 -1.00  1.00 -1.00 -1.00  1.00 -1.00  1.00 -1.00  1.00
B_2u   1.00 -1.00  1.00 -1.00 -1.00  1.00 -1.00  1.00 -1.00  1.00  1.00 -1.00
E_1u   2.00  1.00 -1.00 -2.00  0.00  0.00 -2.00 -1.00  1.00  2.00  0.00  0.00
E_2u   2.00 -1.00 -1.00  2.00  0.00  0.00 -2.00  1.00  1.00 -2.00  0.00  0.00

     the symmetry operations in each class and the name of the first element:

     E        1
                                                                 
     2C6      5    6
                                                                 
     2C3      7    8
                                                                 
     C2       2
                                                                 
     3C2'     4   12   11
                                                                 
     3C2''    3    9   10
                                                                 
     i       13
                                                                 
     2S3     17   18
                                                                 
     2S6     19   20
                                                                 
     s_h     14
                                                                 
     3s_d    16   24   23
                                                                 
     3s_v    15   21   22
                                                                 

     Band symmetry, D_6h(6/mmm) point group:

     e(  1 -  1) =    -37.79382  eV     1   --> A_1g           
     e(  2 -  2) =    -12.07992  eV     1   --> A_2u           
     e(  3 -  4) =    -11.48500  eV     2   --> E_1u           
     e(  5 -  5) =      7.87460  eV     1   --> A_1g           
     e(  6 -  6) =     17.90826  eV     1   --> A_1g           
     e(  7 -  8) =     18.26648  eV     2   --> E_2g           
     e(  9 -  9) =     20.24901  eV     1   --> A_2u           
     e( 10 - 11) =     24.39227  eV     2   --> E_1g           
     e( 12 - 13) =     27.21633  eV     2   --> E_2g           
     e( 14 - 15) =     29.07847  eV     2   --> E_1u           
     e( 16 - 16) =     30.03567  eV     1   --> B_2u           
     e( 17 - 17) =     33.30329  eV     1   --> B_1g           
     e( 18 - 18) =     35.57640  eV     1   --> A_1g           
     e( 19 - 20) =     41.90951  eV     2   --> E_2u           

 **************************************************************************

 **************************************************************************

                    xk=(   0.00000,   0.01443,   0.00000  )

     point group C_2v (mm2) 
     there are  4 classes
     the character table:

       E     C2    s_v   s_v' 
A_1    1.00  1.00  1.00  1.00
A_2    1.00  1.00 -1.00 -1.00
B_1    1.00 -1.00  1.00 -1.00
B_2    1.00 -1.00 -1.00  1.00

     the symmetry operations in each class and the name of the first element:

     E        1
                                                                 
     C2       2
                                                                 
     s_v      3
                                                                 
     s_v'     4
                                                                 

     Band symmetry, C_2v (mm2)  point group:

     e(  1 -  1) =    -37.79357  eV     1   --> A_1  D_1  S_1  
     e(  2 -  2) =    -12.07961  eV     1   --> B_2  D_4  S_4  
     e(  3 -  3) =    -11.48689  eV     1   --> A_1  D_1  S_1  
     e(  4 -  4) =    -11.48542  eV     1   --> B_1  D_3  S_3  
     e(  5 -  5) =      7.87844  eV     1   --> A_1  D_1  S_1  
     e(  6 -  6) =     17.91150  eV     1   --> A_1  D_1  S_1  
     e(  7 -  7) =     18.25838  eV     1   --> A_1  D_1  S_1  
     e(  8 -  8) =     18.26871  eV     1   --> B_1  D_3  S_3  
     e(  9 -  9) =     20.23806  eV     1   --> B_2  D_4  S_4  
     e( 10 - 10) =     24.39033  eV     1   --> A_2  D_2  S_2  
     e( 11 - 11) =     24.40634  eV     1   --> B_2  D_4  S_4  
     e( 12 - 12) =     27.18436  eV     1   --> A_1  D_1  S_1  
     e( 13 - 13) =     27.18886  eV     1   --> B_1  D_3  S_3  
     e( 14 - 14) =     29.10832  eV     1   --> A_1  D_1  S_1  
     e( 15 - 15) =     29.11483  eV     1   --> B_1  D_3  S_3  
     e( 16 - 16) =     30.05017  eV     1   --> A_1  D_1  S_1  
     e( 17 - 17) =     33.28648  eV     1   --> B_2  D_4  S_4  
     e( 18 - 18) =     35.57877  eV     1   --> A_1  D_1  S_1  
     e( 19 - 19) =     41.91739  eV     1   --> A_2  D_2  S_2  
     e( 20 - 20) =     41.93703  eV     1   --> B_2  D_4  S_4  

 **************************************************************************

 **************************************************************************

                    xk=(   0.00000,   0.02887,   0.00000  )

     Band symmetry, C_2v (mm2)  point group:

     e(  1 -  1) =    -37.79283  eV     1   --> A_1  D_1  S_1  
     e(  2 -  2) =    -12.07867  eV     1   --> B_2  D_4  S_4  
     e(  3 -  3) =    -11.49255  eV     1   --> A_1  D_1  S_1  
     e(  4 -  4) =    -11.48668  eV     1   --> B_1  D_3  S_3  
     e(  5 -  5) =      7.88999  eV     1   --> A_1  D_1  S_1  
     e(  6 -  6) =     17.92118  eV     1   --> A_1  D_1  S_1  
     e(  7 -  7) =     18.23522  eV     1   --> A_1  D_1  S_1  
     e(  8 -  8) =     18.27566  eV     1   --> B_1  D_3  S_3  
     e(  9 -  9) =     20.20577  eV     1   --> B_2  D_4  S_4  
     e( 10 - 10) =     24.38451  eV     1   --> A_2  D_2  S_2  
     e( 11 - 11) =     24.44801  eV     1   --> B_2  D_4  S_4  
     e( 12 - 12) =     27.09642  eV     1   --> A_1  D_1  S_1  
     e( 13 - 13) =     27.11298  eV     1   --> B_1  D_3  S_3  
     e( 14 - 14) =     29.19320  eV     1   --> A_1  D_1  S_1  
     e( 15 - 15) =     29.21846  eV     1   --> B_1  D_3  S_3  
     e( 16 - 16) =     30.09434  eV     1   --> A_1  D_1  S_1  
     e( 17 - 17) =     33.23716  eV     1   --> B_2  D_4  S_4  
     e( 18 - 18) =     35.58621  eV     1   --> A_1  D_1  S_1  
     e( 19 - 19) =     41.94118  eV     1   --> A_2  D_2  S_2  
     e( 20 - 20) =     42.01893  eV     1   --> B_2  D_4  S_4  

 **************************************************************************

 **************************************************************************

                    xk=(   0.00000,   0.04330,   0.00000  )

     Band symmetry, C_2v (mm2)  point group:

     e(  1 -  1) =    -37.79163  eV     1   --> A_1  D_1  S_1  
     e(  2 -  2) =    -12.07710  eV     1   --> B_2  D_4  S_4  
     e(  3 -  3) =    -11.50192  eV     1   --> A_1  D_1  S_1  
     e(  4 -  4) =    -11.48877  eV     1   --> B_1  D_3  S_3  
     e(  5 -  5) =      7.90910  eV     1   --> A_1  D_1  S_1  
     e(  6 -  6) =     17.93712  eV     1   --> A_1  D_1  S_1  
     e(  7 -  7) =     18.19545  eV     1   --> A_1  D_1  S_1  
     e(  8 -  8) =     18.28665  eV     1   --> B_1  D_3  S_3  
     e(  9 -  9) =     20.15343  eV     1   --> B_2  D_4  S_4  
     e( 10 - 10) =     24.37488  eV     1   --> A_2  D_2  S_2  
     e( 11 - 11) =     24.51570  eV     1   --> B_2  D_4  S_4  
     e( 12 - 12) =     26.96189  eV     1   --> A_1  D_1  S_1  
     e( 13 - 13) =     27.00073  eV     1   --> B_1  D_3  S_3  
     e( 14 - 14) =     29.31774  eV     1   --> A_1  D_1  S_1  
     e( 15 - 15) =     29.37518  eV     1   --> B_1  D_3  S_3  
     e( 16 - 16) =     30.16547  eV     1   --> A_1  D_1  S_1  
     e( 17 - 17) =     33.15693  eV     1   --> B_2  D_4  S_4  
     e( 18 - 18) =     35.59774  eV     1   --> A_1  D_1  S_1  
     e( 19 - 19) =     41.98047  eV     1   --> A_2  D_2  S_2  
     e( 20 - 20) =     42.15283  eV     1   --> B_2  D_4  S_4  

 **************************************************************************

 **************************************************************************

                    xk=(   0.00000,   0.05774,   0.00000  )

     Band symmetry, C_2v (mm2)  point group:

     e(  1 -  1) =    -37.78995  eV     1   --> A_1  D_1  S_1  
     e(  2 -  2) =    -12.07492  eV     1   --> B_2  D_4  S_4  
     e(  3 -  3) =    -11.51495  eV     1   --> A_1  D_1  S_1  
     e(  4 -  4) =    -11.49168  eV     1   --> B_1  D_3  S_3  
     e(  5 -  5) =      7.93577  eV     1   --> A_1  D_1  S_1  
     e(  6 -  6) =     17.95901  eV     1   --> A_1  D_1  S_1  
     e(  7 -  7) =     18.14075  eV     1   --> A_1  D_1  S_1  
     e(  8 -  8) =     18.30186  eV     1   --> B_1  D_3  S_3  
     e(  9 -  9) =     20.08320  eV     1   --> B_2  D_4  S_4  
     e( 10 - 10) =     24.36151  eV     1   --> A_2  D_2  S_2  
     e( 11 - 11) =     24.60707  eV     1   --> B_2  D_4  S_4  
     e( 12 - 12) =     26.79722  eV     1   --> A_1  D_1  S_1  
     e( 13 - 13) =     26.86653  eV     1   --> B_1  D_3  S_3  
     e( 14 - 14) =     29.46939  eV     1   --> A_1  D_1  S_1  
     e( 15 - 15) =     29.57173  eV     1   --> B_1  D_3  S_3  
     e( 16 - 16) =     30.26336  eV     1   --> A_1  D_1  S_1  
     e( 17 - 17) =     33.04955  eV     1   --> B_2  D_4  S_4  
     e( 18 - 18) =     35.61358  eV     1   --> A_1  D_1  S_1  
     e( 19 - 19) =     42.03531  eV     1   --> A_2  D_2  S_2  
     e( 20 - 20) =     42.33554  eV     1   --> B_2  D_4  S_4  

 **************************************************************************

 **************************************************************************

                    xk=(   0.00000,   0.07217,   0.00000  )

     Band symmetry, C_2v (mm2)  point group:

     e(  1 -  1) =    -37.78780  eV     1   --> A_1  D_1  S_1  
     e(  2 -  2) =    -12.07214  eV     1   --> B_2  D_4  S_4  
     e(  3 -  3) =    -11.53154  eV     1   --> A_1  D_1  S_1  
     e(  4 -  4) =    -11.49538  eV     1   --> B_1  D_3  S_3  
     e(  5 -  5) =      7.97000  eV     1   --> A_1  D_1  S_1  
     e(  6 -  6) =     17.98592  eV     1   --> A_1  D_1  S_1  
     e(  7 -  7) =     18.07257  eV     1   --> A_1  D_1  S_1  
     e(  8 -  8) =     18.32107  eV     1   --> B_1  D_3  S_3  
     e(  9 -  9) =     19.99797  eV     1   --> B_2  D_4  S_4  
     e( 10 - 10) =     24.34454  eV     1   --> A_2  D_2  S_2  
     e( 11 - 11) =     24.71930  eV     1   --> B_2  D_4  S_4  
     e( 12 - 12) =     26.61384  eV     1   --> A_1  D_1  S_1  
     e( 13 - 13) =     26.72087  eV     1   --> B_1  D_3  S_3  
     e( 14 - 14) =     29.63871  eV     1   --> A_1  D_1  S_1  
     e( 15 - 15) =     29.79769  eV     1   --> B_1  D_3  S_3  
     e( 16 - 16) =     30.38642  eV     1   --> A_1  D_1  S_1  
     e( 17 - 17) =     32.91923  eV     1   --> B_2  D_4  S_4  
     e( 18 - 18) =     35.63346  eV     1   --> A_1  D_1  S_1  
     e( 19 - 19) =     42.10554  eV     1   --> A_2  D_2  S_2  
     e( 20 - 20) =     42.56332  eV     1   --> B_2  D_4  S_4  

 **************************************************************************

 **************************************************************************

                    xk=(   0.00000,   0.08660,   0.00000  )

     Band symmetry, C_2v (mm2)  point group:

     e(  1 -  1) =    -37.78521  eV     1   --> A_1  D_1  S_1  
     e(  2 -  2) =    -12.06877  eV     1   --> B_2  D_4  S_4  
     e(  3 -  3) =    -11.55155  eV     1   --> A_1  D_1  S_1  
     e(  4 -  4) =    -11.49986  eV     1   --> B_1  D_3  S_3  
     e(  5 -  5) =      8.01146  eV     1   --> A_1  D_1  S_1  
     e(  6 -  6) =     17.98371  eV     1   --> A_1  D_1  S_1  
     e(  7 -  7) =     18.02556  eV     1   --> A_1  D_1  S_1  
     e(  8 -  8) =     18.34406  eV     1   --> B_1  D_3  S_3  
     e(  9 -  9) =     19.89952  eV     1   --> B_2  D_4  S_4  
     e( 10 - 10) =     24.32410  eV     1   --> A_2  D_2  S_2  
     e( 11 - 11) =     24.84917  eV     1   --> B_2  D_4  S_4  
     e( 12 - 12) =     26.41956  eV     1   --> A_1  D_1  S_1  
     e( 13 - 13) =     26.57095  eV     1   --> B_1  D_3  S_3  
     e( 14 - 14) =     29.81660  eV     1   --> A_1  D_1  S_1  
     e( 15 - 15) =     30.04596  eV     1   --> B_1  D_3  S_3  
     e( 16 - 16) =     30.53286  eV     1   --> A_1  D_1  S_1  
     e( 17 - 17) =     32.77062  eV     1   --> B_2  D_4  S_4  
     e( 18 - 18) =     35.65666  eV     1   --> A_1  D_1  S_1  
     e( 19 - 19) =     42.19097  eV     1   --> A_2  D_2  S_2  
     e( 20 - 20) =     42.83124  eV     1   --> B_2  D_4  S_4  

 **************************************************************************

 **************************************************************************

                    xk=(   0.00000,   0.10104,   0.00000  )

     Band symmetry, C_2v (mm2)  point group:

     e(  1 -  1) =    -37.78219  eV     1   --> A_1  D_1  S_1  
     e(  2 -  2) =    -12.06484  eV     1   --> B_2  D_4  S_4  
     e(  3 -  3) =    -11.57484  eV     1   --> A_1  D_1  S_1  
     e(  4 -  4) =    -11.50508  eV     1   --> B_1  D_3  S_3  
     e(  5 -  5) =      8.06012  eV     1   --> A_1  D_1  S_1  
     e(  6 -  6) =     17.89247  eV     1   --> A_1  D_1  S_1  
     e(  7 -  7) =     18.06021  eV     1   --> A_1  D_1  S_1  
     e(  8 -  8) =     18.37051  eV     1   --> B_1  D_3  S_3  
     e(  9 -  9) =     19.79083  eV     1   --> B_2  D_4  S_4  
     e( 10 - 10) =     24.30038  eV     1   --> A_2  D_2  S_2  
     e( 11 - 11) =     24.99353  eV     1   --> B_2  D_4  S_4  
     e( 12 - 12) =     26.22028  eV     1   --> A_1  D_1  S_1  
     e( 13 - 13) =     26.42157  eV     1   --> B_1  D_3  S_3  
     e( 14 - 14) =     29.99912  eV     1   --> A_1  D_1  S_1  
     e( 15 - 15) =     30.31184  eV     1   --> B_1  D_3  S_3  
     e( 16 - 16) =     30.70099  eV     1   --> A_1  D_1  S_1  
     e( 17 - 17) =     32.60846  eV     1   --> B_2  D_4  S_4  
     e( 18 - 18) =     35.68267  eV     1   --> A_1  D_1  S_1  
     e( 19 - 19) =     42.29134  eV     1   --> A_2  D_2  S_2  
     e( 20 - 20) =     43.13516  eV     1   --> B_2  D_4  S_4  

 **************************************************************************

 **************************************************************************

                    xk=(   0.00000,   0.11547,   0.00000  )

     Band symmetry, C_2v (mm2)  point group:

     e(  1 -  1) =    -37.77874  eV     1   --> A_1  D_1  S_1  
     e(  2 -  2) =    -12.06037  eV     1   --> B_2  D_4  S_4  
     e(  3 -  3) =    -11.60123  eV     1   --> A_1  D_1  S_1  
     e(  4 -  4) =    -11.51101  eV     1   --> B_1  D_3  S_3  
     e(  5 -  5) =      8.11590  eV     1   --> A_1  D_1  S_1  
     e(  6 -  6) =     17.78766  eV     1   --> A_1  D_1  S_1  
     e(  7 -  7) =     18.10194  eV     1   --> A_1  D_1  S_1  
     e(  8 -  8) =     18.40011  eV     1   --> B_1  D_3  S_3  
     e(  9 -  9) =     19.67422  eV     1   --> B_2  D_4  S_4  
     e( 10 - 10) =     24.27359  eV     1   --> A_2  D_2  S_2  
     e( 11 - 11) =     25.14922  eV     1   --> B_2  D_4  S_4  
     e( 12 - 12) =     26.02048  eV     1   --> A_1  D_1  S_1  
     e( 13 - 13) =     26.27605  eV     1   --> B_1  D_3  S_3  
     e( 14 - 14) =     30.18387  eV     1   --> A_1  D_1  S_1  
     e( 15 - 15) =     30.59222  eV     1   --> B_1  D_3  S_3  
     e( 16 - 16) =     30.88950  eV     1   --> A_1  D_1  S_1  
     e( 17 - 17) =     32.43745  eV     1   --> B_2  D_4  S_4  
     e( 18 - 18) =     35.71075  eV     1   --> A_1  D_1  S_1  
     e( 19 - 19) =     42.40637  eV     1   --> A_2  D_2  S_2  
     e( 20 - 20) =     43.47080  eV     1   --> B_2  D_4  S_4  

 **************************************************************************

 **************************************************************************

                    xk=(   0.00000,   0.12990,   0.00000  )

     Band symmetry, C_2v (mm2)  point group:

     e(  1 -  1) =    -37.77489  eV     1   --> A_1  D_1  S_1  
     e(  2 -  2) =    -12.05538  eV     1   --> B_2  D_4  S_4  
     e(  3 -  3) =    -11.63054  eV     1   --> A_1  D_1  S_1  
     e(  4 -  4) =    -11.51760  eV     1   --> B_1  D_3  S_3  
     e(  5 -  5) =      8.17872  eV     1   --> A_1  D_1  S_1  
     e(  6 -  6) =     17.67264  eV     1   --> A_1  D_1  S_1  
     e(  7 -  7) =     18.14731  eV     1   --> A_1  D_1  S_1  
     e(  8 -  8) =     18.43261  eV     1   --> B_1  D_3  S_3  
     e(  9 -  9) =     19.55247  eV     1   --> B_2  D_4  S_4  
     e( 10 - 10) =     24.24394  eV     1   --> A_2  D_2  S_2  
     e( 11 - 11) =     25.31339  eV     1   --> B_2  D_4  S_4  
     e( 12 - 12) =     25.82403  eV     1   --> A_1  D_1  S_1  
     e( 13 - 13) =     26.13679  eV     1   --> B_1  D_3  S_3  
     e( 14 - 14) =     30.36574  eV     1   --> A_1  D_1  S_1  
     e( 15 - 15) =     30.88675  eV     1   --> B_1  D_3  S_3  
     e( 16 - 16) =     31.09741  eV     1   --> A_1  D_1  S_1  
     e( 17 - 17) =     32.26211  eV     1   --> B_2  D_4  S_4  
     e( 18 - 18) =     35.74004  eV     1   --> A_1  D_1  S_1  
     e( 19 - 19) =     42.53615  eV     1   --> A_2  D_2  S_2  
     e( 20 - 20) =     43.83423  eV     1   --> B_2  D_4  S_4  

 **************************************************************************

 **************************************************************************

                    xk=(   0.00000,   0.14434,   0.00000  )

     Band symmetry, C_2v (mm2)  point group:

     e(  1 -  1) =    -37.77067  eV     1   --> A_1  D_1  S_1  
     e(  2 -  2) =    -12.04990  eV     1   --> B_2  D_4  S_4  
     e(  3 -  3) =    -11.66255  eV     1   --> A_1  D_1  S_1  
     e(  4 -  4) =    -11.52483  eV     1   --> B_1  D_3  S_3  
     e(  5 -  5) =      8.24795  eV     1   --> A_1  D_1  S_1  
     e(  6 -  6) =     17.54862  eV     1   --> A_1  D_1  S_1  
     e(  7 -  7) =     18.19518  eV     1   --> A_1  D_1  S_1  
     e(  8 -  8) =     18.46769  eV     1   --> B_1  D_3  S_3  
     e(  9 -  9) =     19.42594  eV     1   --> B_2  D_4  S_4  
     e( 10 - 10) =     24.21169  eV     1   --> A_2  D_2  S_2  
     e( 11 - 11) =     25.48250  eV     1   --> B_2  D_4  S_4  
     e( 12 - 12) =     25.63235  eV     1   --> A_1  D_1  S_1  
     e( 13 - 13) =     26.00511  eV     1   --> B_1  D_3  S_3  
     e( 14 - 14) =     30.54185  eV     1   --> A_1  D_1  S_1  
     e( 15 - 15) =     31.19270  eV     1   --> B_1  D_3  S_3  
     e( 16 - 16) =     31.32447  eV     1   --> A_1  D_1  S_1  
     e( 17 - 17) =     32.08685  eV     1   --> B_2  D_4  S_4  
     e( 18 - 18) =     35.76928  eV     1   --> A_1  D_1  S_1  
     e( 19 - 19) =     42.67954  eV     1   --> A_2  D_2  S_2  
     e( 20 - 20) =     44.22179  eV     1   --> B_2  D_4  S_4  

 **************************************************************************

 **************************************************************************

                    xk=(   0.00000,   0.15877,   0.00000  )

     Band symmetry, C_2v (mm2)  point group:

     e(  1 -  1) =    -37.76611  eV     1   --> A_1  D_1  S_1  
     e(  2 -  2) =    -12.04397  eV     1   --> B_2  D_4  S_4  
     e(  3 -  3) =    -11.69703  eV     1   --> A_1  D_1  S_1  
     e(  4 -  4) =    -11.53263  eV     1   --> B_1  D_3  S_3  
     e(  5 -  5) =      8.32357  eV     1   --> A_1  D_1  S_1  
     e(  6 -  6) =     17.41788  eV     1   --> A_1  D_1  S_1  
     e(  7 -  7) =     18.24443  eV     1   --> A_1  D_1  S_1  
     e(  8 -  8) =     18.50405  eV     1   --> B_1  D_3  S_3  
     e(  9 -  9) =     19.29683  eV     1   --> B_2  D_4  S_4  
     e( 10 - 10) =     24.17710  eV     1   --> A_2  D_2  S_2  
     e( 11 - 11) =     25.45010  eV     1   --> A_1  D_1  S_1  
     e( 12 - 12) =     25.65353  eV     1   --> B_2  D_4  S_4  
     e( 13 - 13) =     25.88204  eV     1   --> B_1  D_3  S_3  
     e( 14 - 14) =     30.71055  eV     1   --> A_1  D_1  S_1  
     e( 15 - 15) =     31.50629  eV     1   --> B_1  D_3  S_3  
     e( 16 - 16) =     31.56884  eV     1   --> A_1  D_1  S_1  
     e( 17 - 17) =     31.91566  eV     1   --> B_2  D_4  S_4  
     e( 18 - 18) =     35.79682  eV     1   --> A_1  D_1  S_1  
     e( 19 - 19) =     42.83664  eV     1   --> A_2  D_2  S_2  
     e( 20 - 20) =     44.62887  eV     1   --> B_2  D_4  S_4  

 **************************************************************************

 **************************************************************************

                    xk=(   0.00000,   0.17321,   0.00000  )

     Band symmetry, C_2v (mm2)  point group:

     e(  1 -  1) =    -37.76123  eV     1   --> A_1  D_1  S_1  
     e(  2 -  2) =    -12.03762  eV     1   --> B_2  D_4  S_4  
     e(  3 -  3) =    -11.73374  eV     1   --> A_1  D_1  S_1  
     e(  4 -  4) =    -11.54096  eV     1   --> B_1  D_3  S_3  
     e(  5 -  5) =      8.40531  eV     1   --> A_1  D_1  S_1  
     e(  6 -  6) =     17.28018  eV     1   --> A_1  D_1  S_1  
     e(  7 -  7) =     18.29386  eV     1   --> A_1  D_1  S_1  
     e(  8 -  8) =     18.54169  eV     1   --> B_1  D_3  S_3  
     e(  9 -  9) =     19.16650  eV     1   --> B_2  D_4  S_4  
     e( 10 - 10) =     24.14043  eV     1   --> A_2  D_2  S_2  
     e( 11 - 11) =     25.27682  eV     1   --> A_1  D_1  S_1  
     e( 12 - 12) =     25.76881  eV     1   --> B_1  D_3  S_3  
     e( 13 - 13) =     25.82361  eV     1   --> B_2  D_4  S_4  
     e( 14 - 14) =     30.87162  eV     1   --> A_1  D_1  S_1  
     e( 15 - 15) =     31.75296  eV     1   --> B_2  D_4  S_4  
     e( 16 - 16) =     31.82858  eV     1   --> B_1  D_3  S_3  
     e( 17 - 17) =     31.83074  eV     1   --> A_1  D_1  S_1  
     e( 18 - 18) =     35.82016  eV     1   --> A_1  D_1  S_1  
     e( 19 - 19) =     43.00677  eV     1   --> A_2  D_2  S_2  
     e( 20 - 20) =     45.05365  eV     1   --> B_2  D_4  S_4  

 **************************************************************************

 **************************************************************************

                    xk=(   0.00000,   0.18764,   0.00000  )

     Band symmetry, C_2v (mm2)  point group:

     e(  1 -  1) =    -37.75605  eV     1   --> A_1  D_1  S_1  
     e(  2 -  2) =    -12.03089  eV     1   --> B_2  D_4  S_4  
     e(  3 -  3) =    -11.77242  eV     1   --> A_1  D_1  S_1  
     e(  4 -  4) =    -11.54977  eV     1   --> B_1  D_3  S_3  
     e(  5 -  5) =      8.49347  eV     1   --> A_1  D_1  S_1  
     e(  6 -  6) =     17.13665  eV     1   --> A_1  D_1  S_1  
     e(  7 -  7) =     18.34224  eV     1   --> A_1  D_1  S_1  
     e(  8 -  8) =     18.58009  eV     1   --> B_1  D_3  S_3  
     e(  9 -  9) =     19.03689  eV     1   --> B_2  D_4  S_4  
     e( 10 - 10) =     24.10197  eV     1   --> A_2  D_2  S_2  
     e( 11 - 11) =     25.11621  eV     1   --> A_1  D_1  S_1  
     e( 12 - 12) =     25.66621  eV     1   --> B_1  D_3  S_3  
     e( 13 - 13) =     25.98994  eV     1   --> B_2  D_4  S_4  
     e( 14 - 14) =     31.02170  eV     1   --> A_1  D_1  S_1  
     e( 15 - 15) =     31.60238  eV     1   --> B_2  D_4  S_4  
     e( 16 - 16) =     32.10868  eV     1   --> A_1  D_1  S_1  
     e( 17 - 17) =     32.15916  eV     1   --> B_1  D_3  S_3  
     e( 18 - 18) =     35.84088  eV     1   --> A_1  D_1  S_1  
     e( 19 - 19) =     43.18969  eV     1   --> A_2  D_2  S_2  
     e( 20 - 20) =     45.49207  eV     1   --> B_2  D_4  S_4  

 **************************************************************************

 **************************************************************************

                    xk=(   0.00000,   0.20207,   0.00000  )

     Band symmetry, C_2v (mm2)  point group:

     e(  1 -  1) =    -37.75061  eV     1   --> A_1  D_1  S_1  
     e(  2 -  2) =    -12.02382  eV     1   --> B_2  D_4  S_4  
     e(  3 -  3) =    -11.81281  eV     1   --> A_1  D_1  S_1  
     e(  4 -  4) =    -11.55899  eV     1   --> B_1  D_3  S_3  
     e(  5 -  5) =      8.58698  eV     1   --> A_1  D_1  S_1  
     e(  6 -  6) =     16.98861  eV     1   --> A_1  D_1  S_1  
     e(  7 -  7) =     18.38797  eV     1   --> A_1  D_1  S_1  
     e(  8 -  8) =     18.61871  eV     1   --> B_1  D_3  S_3  
     e(  9 -  9) =     18.90707  eV     1   --> B_2  D_4  S_4  
     e( 10 - 10) =     24.06201  eV     1   --> A_2  D_2  S_2  
     e( 11 - 11) =     24.97044  eV     1   --> A_1  D_1  S_1  
     e( 12 - 12) =     25.57481  eV     1   --> B_1  D_3  S_3  
     e( 13 - 13) =     26.14781  eV     1   --> B_2  D_4  S_4  
     e( 14 - 14) =     31.16110  eV     1   --> A_1  D_1  S_1  
     e( 15 - 15) =     31.46823  eV     1   --> B_2  D_4  S_4  
     e( 16 - 16) =     32.40126  eV     1   --> A_1  D_1  S_1  
     e( 17 - 17) =     32.49737  eV     1   --> B_1  D_3  S_3  
     e( 18 - 18) =     35.85579  eV     1   --> A_1  D_1  S_1  
     e( 19 - 19) =     43.38481  eV     1   --> A_2  D_2  S_2  
     e( 20 - 20) =     45.94038  eV     1   --> B_2  D_4  S_4  

 **************************************************************************

 **************************************************************************

                    xk=(   0.00000,   0.21651,   0.00000  )

     Band symmetry, C_2v (mm2)  point group:

     e(  1 -  1) =    -37.74494  eV     1   --> A_1  D_1  S_1  
     e(  2 -  2) =    -12.01645  eV     1   --> B_2  D_4  S_4  
     e(  3 -  3) =    -11.85464  eV     1   --> A_1  D_1  S_1  
     e(  4 -  4) =    -11.56857  eV     1   --> B_1  D_3  S_3  
     e(  5 -  5) =      8.68598  eV     1   --> A_1  D_1  S_1  
     e(  6 -  6) =     16.83716  eV     1   --> A_1  D_1  S_1  
     e(  7 -  7) =     18.42964  eV     1   --> A_1  D_1  S_1  
     e(  8 -  8) =     18.65745  eV     1   --> B_1  D_3  S_3  
     e(  9 -  9) =     18.77882  eV     1   --> B_2  D_4  S_4  
     e( 10 - 10) =     24.02083  eV     1   --> A_2  D_2  S_2  
     e( 11 - 11) =     24.84170  eV     1   --> A_1  D_1  S_1  
     e( 12 - 12) =     25.49554  eV     1   --> B_1  D_3  S_3  
     e( 13 - 13) =     26.29440  eV     1   --> B_2  D_4  S_4  
     e( 14 - 14) =     31.29158  eV     1   --> A_1  D_1  S_1  
     e( 15 - 15) =     31.35524  eV     1   --> B_2  D_4  S_4  
     e( 16 - 16) =     32.70698  eV     1   --> A_1  D_1  S_1  
     e( 17 - 17) =     32.84276  eV     1   --> B_1  D_3  S_3  
     e( 18 - 18) =     35.86341  eV     1   --> A_1  D_1  S_1  
     e( 19 - 19) =     43.59211  eV     1   --> A_2  D_2  S_2  
     e( 20 - 20) =     46.39494  eV     1   --> B_2  D_4  S_4  

 **************************************************************************

 **************************************************************************

                    xk=(   0.00000,   0.23094,   0.00000  )

     Band symmetry, C_2v (mm2)  point group:

     e(  1 -  1) =    -37.73908  eV     1   --> A_1  D_1  S_1  
     e(  2 -  2) =    -12.00882  eV     1   --> B_2  D_4  S_4  
     e(  3 -  3) =    -11.89762  eV     1   --> A_1  D_1  S_1  
     e(  4 -  4) =    -11.57846  eV     1   --> B_1  D_3  S_3  
     e(  5 -  5) =      8.79016  eV     1   --> A_1  D_1  S_1  
     e(  6 -  6) =     16.68250  eV     1   --> A_1  D_1  S_1  
     e(  7 -  7) =     18.46573  eV     1   --> A_1  D_1  S_1  
     e(  8 -  8) =     18.65264  eV     1   --> B_2  D_4  S_4  
     e(  9 -  9) =     18.69488  eV     1   --> B_1  D_3  S_3  
     e( 10 - 10) =     23.97873  eV     1   --> A_2  D_2  S_2  
     e( 11 - 11) =     24.73197  eV     1   --> A_1  D_1  S_1  
     e( 12 - 12) =     25.42783  eV     1   --> B_1  D_3  S_3  
     e( 13 - 13) =     26.42572  eV     1   --> B_2  D_4  S_4  
     e( 14 - 14) =     31.26602  eV     1   --> B_2  D_4  S_4  
     e( 15 - 15) =     31.40934  eV     1   --> A_1  D_1  S_1  
     e( 16 - 16) =     33.02417  eV     1   --> A_1  D_1  S_1  
     e( 17 - 17) =     33.19482  eV     1   --> B_1  D_3  S_3  
     e( 18 - 18) =     35.86199  eV     1   --> A_1  D_1  S_1  
     e( 19 - 19) =     43.81018  eV     1   --> A_2  D_2  S_2  
     e( 20 - 20) =     46.83605  eV     1   --> A_1  D_1  S_1  

 **************************************************************************

 **************************************************************************

                    xk=(   0.00000,   0.24537,   0.00000  )

     Band symmetry, C_2v (mm2)  point group:

     e(  1 -  1) =    -37.73307  eV     1   --> A_1  D_1  S_1  
     e(  2 -  2) =    -12.00099  eV     1   --> B_2  D_4  S_4  
     e(  3 -  3) =    -11.94149  eV     1   --> A_1  D_1  S_1  
     e(  4 -  4) =    -11.58857  eV     1   --> B_1  D_3  S_3  
     e(  5 -  5) =      8.89909  eV     1   --> A_1  D_1  S_1  
     e(  6 -  6) =     16.52555  eV     1   --> A_1  D_1  S_1  
     e(  7 -  7) =     18.49476  eV     1   --> A_1  D_1  S_1  
     e(  8 -  8) =     18.52916  eV     1   --> B_2  D_4  S_4  
     e(  9 -  9) =     18.73093  eV     1   --> B_1  D_3  S_3  
     e( 10 - 10) =     23.93598  eV     1   --> A_2  D_2  S_2  
     e( 11 - 11) =     24.64318  eV     1   --> A_1  D_1  S_1  
     e( 12 - 12) =     25.37226  eV     1   --> B_1  D_3  S_3  
     e( 13 - 13) =     26.53848  eV     1   --> B_2  D_4  S_4  
     e( 14 - 14) =     31.20494  eV     1   --> B_2  D_4  S_4  
     e( 15 - 15) =     31.51632  eV     1   --> A_1  D_1  S_1  
     e( 16 - 16) =     33.35108  eV     1   --> A_1  D_1  S_1  
     e( 17 - 17) =     33.55251  eV     1   --> B_1  D_3  S_3  
     e( 18 - 18) =     35.84912  eV     1   --> A_1  D_1  S_1  
     e( 19 - 19) =     44.03889  eV     1   --> A_2  D_2  S_2  
     e( 20 - 20) =     46.75784  eV     1   --> A_1  D_1  S_1  

 **************************************************************************

 **************************************************************************

                    xk=(   0.00000,   0.25981,   0.00000  )

     Band symmetry, C_2v (mm2)  point group:

     e(  1 -  1) =    -37.72694  eV     1   --> A_1  D_1  S_1  
     e(  2 -  2) =    -11.99300  eV     1   --> B_2  D_4  S_4  
     e(  3 -  3) =    -11.98595  eV     1   --> A_1  D_1  S_1  
     e(  4 -  4) =    -11.59886  eV     1   --> B_1  D_3  S_3  
     e(  5 -  5) =      9.01181  eV     1   --> A_1  D_1  S_1  
     e(  6 -  6) =     16.36683  eV     1   --> A_1  D_1  S_1  
     e(  7 -  7) =     18.40883  eV     1   --> B_2  D_4  S_4  
     e(  8 -  8) =     18.51544  eV     1   --> A_1  D_1  S_1  
     e(  9 -  9) =     18.76518  eV     1   --> B_1  D_3  S_3  
     e( 10 - 10) =     23.89288  eV     1   --> A_2  D_2  S_2  
     e( 11 - 11) =     24.57675  eV     1   --> A_1  D_1  S_1  
     e( 12 - 12) =     25.32914  eV     1   --> B_1  D_3  S_3  
     e( 13 - 13) =     26.62975  eV     1   --> B_2  D_4  S_4  
     e( 14 - 14) =     31.17502  eV     1   --> B_2  D_4  S_4  
     e( 15 - 15) =     31.61257  eV     1   --> A_1  D_1  S_1  
     e( 16 - 16) =     33.68567  eV     1   --> A_1  D_1  S_1  
     e( 17 - 17) =     33.91661  eV     1   --> B_1  D_3  S_3  
     e( 18 - 18) =     35.82434  eV     1   --> A_1  D_1  S_1  
     e( 19 - 19) =     44.27764  eV     1   --> A_2  D_2  S_2  
     e( 20 - 20) =     46.65058  eV     1   --> A_1  D_1  S_1  

 **************************************************************************

 **************************************************************************

                    xk=(   0.00000,   0.27424,   0.00000  )

     Band symmetry, C_2v (mm2)  point group:

     e(  1 -  1) =    -37.72072  eV     1   --> A_1  D_1  S_1  
     e(  2 -  2) =    -12.03071  eV     1   --> A_1  D_1  S_1  
     e(  3 -  3) =    -11.98489  eV     1   --> B_2  D_4  S_4  
     e(  4 -  4) =    -11.60926  eV     1   --> B_1  D_3  S_3  
     e(  5 -  5) =      9.12949  eV     1   --> A_1  D_1  S_1  
     e(  6 -  6) =     16.20684  eV     1   --> A_1  D_1  S_1  
     e(  7 -  7) =     18.29206  eV     1   --> B_2  D_4  S_4  
     e(  8 -  8) =     18.52669  eV     1   --> A_1  D_1  S_1  
     e(  9 -  9) =     18.79712  eV     1   --> B_1  D_3  S_3  
     e( 10 - 10) =     23.84969  eV     1   --> A_2  D_2  S_2  
     e( 11 - 11) =     24.53386  eV     1   --> A_1  D_1  S_1  
     e( 12 - 12) =     25.29839  eV     1   --> B_1  D_3  S_3  
     e( 13 - 13) =     26.69749  eV     1   --> B_2  D_4  S_4  
     e( 14 - 14) =     31.17803  eV     1   --> B_2  D_4  S_4  
     e( 15 - 15) =     31.69834  eV     1   --> A_1  D_1  S_1  
     e( 16 - 16) =     34.02472  eV     1   --> A_1  D_1  S_1  
     e( 17 - 17) =     34.28578  eV     1   --> B_1  D_3  S_3  
     e( 18 - 18) =     35.78967  eV     1   --> A_1  D_1  S_1  
     e( 19 - 19) =     44.52570  eV     1   --> A_2  D_2  S_2  
     e( 20 - 20) =     46.52353  eV     1   --> A_1  D_1  S_1  

 **************************************************************************

 **************************************************************************

                    xk=(   0.00000,   0.28868,   0.00000  )

     Band symmetry, C_2v (mm2)  point group:

     e(  1 -  1) =    -37.71445  eV     1   --> A_1  D_1  S_1  
     e(  2 -  2) =    -12.07552  eV     1   --> A_1  D_1  S_1  
     e(  3 -  3) =    -11.97673  eV     1   --> B_2  D_4  S_4  
     e(  4 -  4) =    -11.61970  eV     1   --> B_1  D_3  S_3  
     e(  5 -  5) =      9.25157  eV     1   --> A_1  D_1  S_1  
     e(  6 -  6) =     16.04617  eV     1   --> A_1  D_1  S_1  
     e(  7 -  7) =     18.17919  eV     1   --> B_2  D_4  S_4  
     e(  8 -  8) =     18.52779  eV     1   --> A_1  D_1  S_1  
     e(  9 -  9) =     18.82659  eV     1   --> B_1  D_3  S_3  
     e( 10 - 10) =     23.80669  eV     1   --> A_2  D_2  S_2  
     e( 11 - 11) =     24.51661  eV     1   --> A_1  D_1  S_1  
     e( 12 - 12) =     25.27978  eV     1   --> B_1  D_3  S_3  
     e( 13 - 13) =     26.74094  eV     1   --> B_2  D_4  S_4  
     e( 14 - 14) =     31.21512  eV     1   --> B_2  D_4  S_4  
     e( 15 - 15) =     31.77358  eV     1   --> A_1  D_1  S_1  
     e( 16 - 16) =     34.36699  eV     1   --> A_1  D_1  S_1  
     e( 17 - 17) =     34.66028  eV     1   --> B_1  D_3  S_3  
     e( 18 - 18) =     35.74512  eV     1   --> A_1  D_1  S_1  
     e( 19 - 19) =     44.78258  eV     1   --> A_2  D_2  S_2  
     e( 20 - 20) =     46.37550  eV     1   --> A_1  D_1  S_1  

 **************************************************************************

 **************************************************************************

                    xk=(   0.00000,   0.30311,   0.00000  )

     Band symmetry, C_2v (mm2)  point group:

     e(  1 -  1) =    -37.70817  eV     1   --> A_1  D_1  S_1  
     e(  2 -  2) =    -12.12008  eV     1   --> A_1  D_1  S_1  
     e(  3 -  3) =    -11.96855  eV     1   --> B_2  D_4  S_4  
     e(  4 -  4) =    -11.63012  eV     1   --> B_1  D_3  S_3  
     e(  5 -  5) =      9.37742  eV     1   --> A_1  D_1  S_1  
     e(  6 -  6) =     15.88505  eV     1   --> A_1  D_1  S_1  
     e(  7 -  7) =     18.07052  eV     1   --> B_2  D_4  S_4  
     e(  8 -  8) =     18.51838  eV     1   --> A_1  D_1  S_1  
     e(  9 -  9) =     18.85326  eV     1   --> B_1  D_3  S_3  
     e( 10 - 10) =     23.76413  eV     1   --> A_2  D_2  S_2  
     e( 11 - 11) =     24.52478  eV     1   --> A_1  D_1  S_1  
     e( 12 - 12) =     25.27299  eV     1   --> B_1  D_3  S_3  
     e( 13 - 13) =     26.76066  eV     1   --> B_2  D_4  S_4  
     e( 14 - 14) =     31.28521  eV     1   --> B_2  D_4  S_4  
     e( 15 - 15) =     31.83823  eV     1   --> A_1  D_1  S_1  
     e( 16 - 16) =     34.70373  eV     1   --> A_1  D_1  S_1  
     e( 17 - 17) =     35.03926  eV     1   --> B_1  D_3  S_3  
     e( 18 - 18) =     35.69632  eV     1   --> A_1  D_1  S_1  
     e( 19 - 19) =     45.04743  eV     1   --> A_2  D_2  S_2  
     e( 20 - 20) =     46.21009  eV     1   --> A_1  D_1  S_1  

 **************************************************************************

 **************************************************************************

                    xk=(   0.00000,   0.31754,   0.00000  )

     Band symmetry, C_2v (mm2)  point group:

     e(  1 -  1) =    -37.70192  eV     1   --> A_1  D_1  S_1  
     e(  2 -  2) =    -12.16414  eV     1   --> A_1  D_1  S_1  
     e(  3 -  3) =    -11.96040  eV     1   --> B_2  D_4  S_4  
     e(  4 -  4) =    -11.64045  eV     1   --> B_1  D_3  S_3  
     e(  5 -  5) =      9.50648  eV     1   --> A_1  D_1  S_1  
     e(  6 -  6) =     15.72431  eV     1   --> A_1  D_1  S_1  
     e(  7 -  7) =     17.96621  eV     1   --> B_2  D_4  S_4  
     e(  8 -  8) =     18.49852  eV     1   --> A_1  D_1  S_1  
     e(  9 -  9) =     18.87695  eV     1   --> B_1  D_3  S_3  
     e( 10 - 10) =     23.72226  eV     1   --> A_2  D_2  S_2  
     e( 11 - 11) =     24.55854  eV     1   --> A_1  D_1  S_1  
     e( 12 - 12) =     25.27725  eV     1   --> B_1  D_3  S_3  
     e( 13 - 13) =     26.75836  eV     1   --> B_2  D_4  S_4  
     e( 14 - 14) =     31.38542  eV     1   --> B_2  D_4  S_4  
     e( 15 - 15) =     31.89226  eV     1   --> A_1  D_1  S_1  
     e( 16 - 16) =     35.00886  eV     1   --> A_1  D_1  S_1  
     e( 17 - 17) =     35.42484  eV     1   --> B_1  D_3  S_3  
     e( 18 - 18) =     35.66486  eV     1   --> A_1  D_1  S_1  
     e( 19 - 19) =     45.31963  eV     1   --> A_2  D_2  S_2  
     e( 20 - 20) =     46.02983  eV     1   --> A_1  D_1  S_1  

 **************************************************************************

 **************************************************************************

                    xk=(   0.00000,   0.33198,   0.00000  )

     Band symmetry, C_2v (mm2)  point group:

     e(  1 -  1) =    -37.69575  eV     1   --> A_1  D_1  S_1  
     e(  2 -  2) =    -12.20742  eV     1   --> A_1  D_1  S_1  
     e(  3 -  3) =    -11.95235  eV     1   --> B_2  D_4  S_4  
     e(  4 -  4) =    -11.65063  eV     1   --> B_1  D_3  S_3  
     e(  5 -  5) =      9.63892  eV     1   --> A_1  D_1  S_1  
     e(  6 -  6) =     15.56317  eV     1   --> A_1  D_1  S_1  
     e(  7 -  7) =     17.86666  eV     1   --> B_2  D_4  S_4  
     e(  8 -  8) =     18.46883  eV     1   --> A_1  D_1  S_1  
     e(  9 -  9) =     18.89750  eV     1   --> B_1  D_3  S_3  
     e( 10 - 10) =     23.68132  eV     1   --> A_2  D_2  S_2  
     e( 11 - 11) =     24.61695  eV     1   --> A_1  D_1  S_1  
     e( 12 - 12) =     25.29250  eV     1   --> B_1  D_3  S_3  
     e( 13 - 13) =     26.73713  eV     1   --> B_2  D_4  S_4  
     e( 14 - 14) =     31.51374  eV     1   --> B_2  D_4  S_4  
     e( 15 - 15) =     31.93513  eV     1   --> A_1  D_1  S_1  
     e( 16 - 16) =     35.20495  eV     1   --> A_1  D_1  S_1  
     e( 17 - 17) =     35.73397  eV     1   --> A_1  D_1  S_1  
     e( 18 - 18) =     35.81119  eV     1   --> B_1  D_3  S_3  
     e( 19 - 19) =     45.59797  eV     1   --> A_2  D_2  S_2  
     e( 20 - 20) =     45.84247  eV     1   --> A_1  D_1  S_1  

 **************************************************************************

 **************************************************************************

                    xk=(   0.00000,   0.34641,   0.00000  )

     Band symmetry, C_2v (mm2)  point group:

     e(  1 -  1) =    -37.68968  eV     1   --> A_1  D_1  S_1  
     e(  2 -  2) =    -12.24969  eV     1   --> A_1  D_1  S_1  
     e(  3 -  3) =    -11.94444  eV     1   --> B_2  D_4  S_4  
     e(  4 -  4) =    -11.66061  eV     1   --> B_1  D_3  S_3  
     e(  5 -  5) =      9.77417  eV     1   --> A_1  D_1  S_1  
     e(  6 -  6) =     15.40237  eV     1   --> A_1  D_1  S_1  
     e(  7 -  7) =     17.77197  eV     1   --> B_2  D_4  S_4  
     e(  8 -  8) =     18.43019  eV     1   --> A_1  D_1  S_1  
     e(  9 -  9) =     18.91497  eV     1   --> B_1  D_3  S_3  
     e( 10 - 10) =     23.64153  eV     1   --> A_2  D_2  S_2  
     e( 11 - 11) =     24.69918  eV     1   --> A_1  D_1  S_1  
     e( 12 - 12) =     25.31760  eV     1   --> B_1  D_3  S_3  
     e( 13 - 13) =     26.70021  eV     1   --> B_2  D_4  S_4  
     e( 14 - 14) =     31.66550  eV     1   --> B_2  D_4  S_4  
     e( 15 - 15) =     31.96646  eV     1   --> A_1  D_1  S_1  
     e( 16 - 16) =     35.21362  eV     1   --> A_1  D_1  S_1  
     e( 17 - 17) =     35.97889  eV     1   --> A_1  D_1  S_1  
     e( 18 - 18) =     36.20023  eV     1   --> B_1  D_3  S_3  
     e( 19 - 19) =     45.58627  eV     1   --> B_1  D_3  S_3  
     e( 20 - 20) =     45.64990  eV     1   --> A_1  D_1  S_1  

 **************************************************************************

 **************************************************************************

                    xk=(   0.00000,   0.36084,   0.00000  )

     Band symmetry, C_2v (mm2)  point group:

     e(  1 -  1) =    -37.68376  eV     1   --> A_1  D_1  S_1  
     e(  2 -  2) =    -12.29068  eV     1   --> A_1  D_1  S_1  
     e(  3 -  3) =    -11.93671  eV     1   --> B_2  D_4  S_4  
     e(  4 -  4) =    -11.67031  eV     1   --> B_1  D_3  S_3  
     e(  5 -  5) =      9.91201  eV     1   --> A_1  D_1  S_1  
     e(  6 -  6) =     15.24209  eV     1   --> A_1  D_1  S_1  
     e(  7 -  7) =     17.68224  eV     1   --> B_2  D_4  S_4  
     e(  8 -  8) =     18.38394  eV     1   --> A_1  D_1  S_1  
     e(  9 -  9) =     18.92941  eV     1   --> B_1  D_3  S_3  
     e( 10 - 10) =     23.60310  eV     1   --> A_2  D_2  S_2  
     e( 11 - 11) =     24.80386  eV     1   --> A_1  D_1  S_1  
     e( 12 - 12) =     25.35165  eV     1   --> B_1  D_3  S_3  
     e( 13 - 13) =     26.65120  eV     1   --> B_2  D_4  S_4  
     e( 14 - 14) =     31.83415  eV     1   --> B_2  D_4  S_4  
     e( 15 - 15) =     31.98578  eV     1   --> A_1  D_1  S_1  
     e( 16 - 16) =     35.12956  eV     1   --> A_1  D_1  S_1  
     e( 17 - 17) =     36.30540  eV     1   --> A_1  D_1  S_1  
     e( 18 - 18) =     36.59051  eV     1   --> B_1  D_3  S_3  
     e( 19 - 19) =     45.17213  eV     1   --> B_1  D_3  S_3  
     e( 20 - 20) =     45.45755  eV     1   --> A_1  D_1  S_1  

 **************************************************************************

 **************************************************************************

                    xk=(   0.00000,   0.37528,   0.00000  )

     Band symmetry, C_2v (mm2)  point group:

     e(  1 -  1) =    -37.67802  eV     1   --> A_1  D_1  S_1  
     e(  2 -  2) =    -12.33018  eV     1   --> A_1  D_1  S_1  
     e(  3 -  3) =    -11.92922  eV     1   --> B_2  D_4  S_4  
     e(  4 -  4) =    -11.67969  eV     1   --> B_1  D_3  S_3  
     e(  5 -  5) =     10.05174  eV     1   --> A_1  D_1  S_1  
     e(  6 -  6) =     15.08263  eV     1   --> A_1  D_1  S_1  
     e(  7 -  7) =     17.59776  eV     1   --> B_2  D_4  S_4  
     e(  8 -  8) =     18.33137  eV     1   --> A_1  D_1  S_1  
     e(  9 -  9) =     18.94105  eV     1   --> B_1  D_3  S_3  
     e( 10 - 10) =     23.56623  eV     1   --> A_2  D_2  S_2  
     e( 11 - 11) =     24.92895  eV     1   --> A_1  D_1  S_1  
     e( 12 - 12) =     25.39344  eV     1   --> B_1  D_3  S_3  
     e( 13 - 13) =     26.59329  eV     1   --> B_2  D_4  S_4  
     e( 14 - 14) =     31.99172  eV     1   --> A_1  D_1  S_1  
     e( 15 - 15) =     32.01992  eV     1   --> B_2  D_4  S_4  
     e( 16 - 16) =     35.01203  eV     1   --> A_1  D_1  S_1  
     e( 17 - 17) =     36.65576  eV     1   --> A_1  D_1  S_1  
     e( 18 - 18) =     36.98241  eV     1   --> B_1  D_3  S_3  
     e( 19 - 19) =     44.77549  eV     1   --> B_1  D_3  S_3  
     e( 20 - 20) =     45.26203  eV     1   --> A_1  D_1  S_1  

 **************************************************************************

 **************************************************************************

                    xk=(   0.00000,   0.38971,   0.00000  )

     Band symmetry, C_2v (mm2)  point group:

     e(  1 -  1) =    -37.67250  eV     1   --> A_1  D_1  S_1  
     e(  2 -  2) =    -12.36796  eV     1   --> A_1  D_1  S_1  
     e(  3 -  3) =    -11.92202  eV     1   --> B_2  D_4  S_4  
     e(  4 -  4) =    -11.68868  eV     1   --> B_1  D_3  S_3  
     e(  5 -  5) =     10.19223  eV     1   --> A_1  D_1  S_1  
     e(  6 -  6) =     14.92415  eV     1   --> A_1  D_1  S_1  
     e(  7 -  7) =     17.51861  eV     1   --> B_2  D_4  S_4  
     e(  8 -  8) =     18.27414  eV     1   --> A_1  D_1  S_1  
     e(  9 -  9) =     18.94986  eV     1   --> B_1  D_3  S_3  
     e( 10 - 10) =     23.53111  eV     1   --> A_2  D_2  S_2  
     e( 11 - 11) =     25.07232  eV     1   --> A_1  D_1  S_1  
     e( 12 - 12) =     25.44150  eV     1   --> B_1  D_3  S_3  
     e( 13 - 13) =     26.52966  eV     1   --> B_2  D_4  S_4  
     e( 14 - 14) =     31.98339  eV     1   --> A_1  D_1  S_1  
     e( 15 - 15) =     32.21631  eV     1   --> B_2  D_4  S_4  
     e( 16 - 16) =     34.87962  eV     1   --> A_1  D_1  S_1  
     e( 17 - 17) =     37.01258  eV     1   --> A_1  D_1  S_1  
     e( 18 - 18) =     37.37233  eV     1   --> B_1  D_3  S_3  
     e( 19 - 19) =     44.39722  eV     1   --> B_1  D_3  S_3  
     e( 20 - 20) =     45.06532  eV     1   --> A_1  D_1  S_1  

 **************************************************************************

 **************************************************************************

                    xk=(   0.00000,   0.40415,   0.00000  )

     Band symmetry, C_2v (mm2)  point group:

     e(  1 -  1) =    -37.66723  eV     1   --> A_1  D_1  S_1  
     e(  2 -  2) =    -12.40381  eV     1   --> A_1  D_1  S_1  
     e(  3 -  3) =    -11.91515  eV     1   --> B_2  D_4  S_4  
     e(  4 -  4) =    -11.69723  eV     1   --> B_1  D_3  S_3  
     e(  5 -  5) =     10.33467  eV     1   --> A_1  D_1  S_1  
     e(  6 -  6) =     14.76699  eV     1   --> A_1  D_1  S_1  
     e(  7 -  7) =     17.44490  eV     1   --> B_2  D_4  S_4  
     e(  8 -  8) =     18.21395  eV     1   --> A_1  D_1  S_1  
     e(  9 -  9) =     18.95648  eV     1   --> B_1  D_3  S_3  
     e( 10 - 10) =     23.49791  eV     1   --> A_2  D_2  S_2  
     e( 11 - 11) =     25.23182  eV     1   --> A_1  D_1  S_1  
     e( 12 - 12) =     25.49505  eV     1   --> B_1  D_3  S_3  
     e( 13 - 13) =     26.46298  eV     1   --> B_2  D_4  S_4  
     e( 14 - 14) =     31.95960  eV     1   --> A_1  D_1  S_1  
     e( 15 - 15) =     32.41937  eV     1   --> B_2  D_4  S_4  
     e( 16 - 16) =     34.74120  eV     1   --> A_1  D_1  S_1  
     e( 17 - 17) =     37.37032  eV     1   --> A_1  D_1  S_1  
     e( 18 - 18) =     37.76247  eV     1   --> B_1  D_3  S_3  
     e( 19 - 19) =     44.03935  eV     1   --> B_1  D_3  S_3  
     e( 20 - 20) =     44.87132  eV     1   --> A_1  D_1  S_1  

 **************************************************************************

 **************************************************************************

                    xk=(   0.00000,   0.41858,   0.00000  )

     Band symmetry, C_2v (mm2)  point group:

     e(  1 -  1) =    -37.66225  eV     1   --> A_1  D_1  S_1  
     e(  2 -  2) =    -12.43753  eV     1   --> A_1  D_1  S_1  
     e(  3 -  3) =    -11.90864  eV     1   --> B_2  D_4  S_4  
     e(  4 -  4) =    -11.70530  eV     1   --> B_1  D_3  S_3  
     e(  5 -  5) =     10.47764  eV     1   --> A_1  D_1  S_1  
     e(  6 -  6) =     14.61149  eV     1   --> A_1  D_1  S_1  
     e(  7 -  7) =     17.37675  eV     1   --> B_2  D_4  S_4  
     e(  8 -  8) =     18.15239  eV     1   --> A_1  D_1  S_1  
     e(  9 -  9) =     18.96101  eV     1   --> B_1  D_3  S_3  
     e( 10 - 10) =     23.46679  eV     1   --> A_2  D_2  S_2  
     e( 11 - 11) =     25.40472  eV     1   --> A_1  D_1  S_1  
     e( 12 - 12) =     25.55235  eV     1   --> B_1  D_3  S_3  
     e( 13 - 13) =     26.39551  eV     1   --> B_2  D_4  S_4  
     e( 14 - 14) =     31.91912  eV     1   --> A_1  D_1  S_1  
     e( 15 - 15) =     32.62527  eV     1   --> B_2  D_4  S_4  
     e( 16 - 16) =     34.60227  eV     1   --> A_1  D_1  S_1  
     e( 17 - 17) =     37.72546  eV     1   --> A_1  D_1  S_1  
     e( 18 - 18) =     38.14953  eV     1   --> B_1  D_3  S_3  
     e( 19 - 19) =     43.70268  eV     1   --> B_1  D_3  S_3  
     e( 20 - 20) =     44.67841  eV     1   --> A_1  D_1  S_1  

 **************************************************************************

 **************************************************************************

                    xk=(   0.00000,   0.43301,   0.00000  )

     Band symmetry, C_2v (mm2)  point group:

     e(  1 -  1) =    -37.65759  eV     1   --> A_1  D_1  S_1  
     e(  2 -  2) =    -12.46895  eV     1   --> A_1  D_1  S_1  
     e(  3 -  3) =    -11.90256  eV     1   --> B_2  D_4  S_4  
     e(  4 -  4) =    -11.71283  eV     1   --> B_1  D_3  S_3  
     e(  5 -  5) =     10.62044  eV     1   --> A_1  D_1  S_1  
     e(  6 -  6) =     14.45823  eV     1   --> A_1  D_1  S_1  
     e(  7 -  7) =     17.31425  eV     1   --> B_2  D_4  S_4  
     e(  8 -  8) =     18.09103  eV     1   --> A_1  D_1  S_1  
     e(  9 -  9) =     18.96378  eV     1   --> B_1  D_3  S_3  
     e( 10 - 10) =     23.43790  eV     1   --> A_2  D_2  S_2  
     e( 11 - 11) =     25.58826  eV     1   --> A_1  D_1  S_1  
     e( 12 - 12) =     25.61188  eV     1   --> B_1  D_3  S_3  
     e( 13 - 13) =     26.32918  eV     1   --> B_2  D_4  S_4  
     e( 14 - 14) =     31.86107  eV     1   --> A_1  D_1  S_1  
     e( 15 - 15) =     32.83036  eV     1   --> B_2  D_4  S_4  
     e( 16 - 16) =     34.46952  eV     1   --> A_1  D_1  S_1  
     e( 17 - 17) =     38.07581  eV     1   --> A_1  D_1  S_1  
     e( 18 - 18) =     38.53153  eV     1   --> B_1  D_3  S_3  
     e( 19 - 19) =     43.38841  eV     1   --> B_1  D_3  S_3  
     e( 20 - 20) =     44.48770  eV     1   --> A_1  D_1  S_1  

 **************************************************************************

 **************************************************************************

                    xk=(   0.00000,   0.44745,   0.00000  )

     Band symmetry, C_2v (mm2)  point group:

     e(  1 -  1) =    -37.65327  eV     1   --> A_1  D_1  S_1  
     e(  2 -  2) =    -12.49789  eV     1   --> A_1  D_1  S_1  
     e(  3 -  3) =    -11.89693  eV     1   --> B_2  D_4  S_4  
     e(  4 -  4) =    -11.71978  eV     1   --> B_1  D_3  S_3  
     e(  5 -  5) =     10.76228  eV     1   --> A_1  D_1  S_1  
     e(  6 -  6) =     14.30771  eV     1   --> A_1  D_1  S_1  
     e(  7 -  7) =     17.25748  eV     1   --> B_2  D_4  S_4  
     e(  8 -  8) =     18.03131  eV     1   --> A_1  D_1  S_1  
     e(  9 -  9) =     18.96627  eV     1   --> B_1  D_3  S_3  
     e( 10 - 10) =     23.41136  eV     1   --> A_2  D_2  S_2  
     e( 11 - 11) =     25.67222  eV     1   --> B_1  D_3  S_3  
     e( 12 - 12) =     25.77912  eV     1   --> A_1  D_1  S_1  
     e( 13 - 13) =     26.26656  eV     1   --> B_2  D_4  S_4  
     e( 14 - 14) =     31.78526  eV     1   --> A_1  D_1  S_1  
     e( 15 - 15) =     33.03119  eV     1   --> B_2  D_4  S_4  
     e( 16 - 16) =     34.34435  eV     1   --> A_1  D_1  S_1  
     e( 17 - 17) =     38.41866  eV     1   --> A_1  D_1  S_1  
     e( 18 - 18) =     38.90603  eV     1   --> B_1  D_3  S_3  
     e( 19 - 19) =     43.09812  eV     1   --> B_1  D_3  S_3  
     e( 20 - 20) =     44.29691  eV     1   --> A_1  D_1  S_1  

 **************************************************************************

 **************************************************************************

                    xk=(   0.00000,   0.46188,   0.00000  )

     Band symmetry, C_2v (mm2)  point group:

     e(  1 -  1) =    -37.64933  eV     1   --> A_1  D_1  S_1  
     e(  2 -  2) =    -12.52421  eV     1   --> A_1  D_1  S_1  
     e(  3 -  3) =    -11.89179  eV     1   --> B_2  D_4  S_4  
     e(  4 -  4) =    -11.72611  eV     1   --> B_1  D_3  S_3  
     e(  5 -  5) =     10.90194  eV     1   --> A_1  D_1  S_1  
     e(  6 -  6) =     14.16075  eV     1   --> A_1  D_1  S_1  
     e(  7 -  7) =     17.20649  eV     1   --> B_2  D_4  S_4  
     e(  8 -  8) =     17.97449  eV     1   --> A_1  D_1  S_1  
     e(  9 -  9) =     18.96646  eV     1   --> B_1  D_3  S_3  
     e( 10 - 10) =     23.38729  eV     1   --> A_2  D_2  S_2  
     e( 11 - 11) =     25.73147  eV     1   --> B_1  D_3  S_3  
     e( 12 - 12) =     25.97379  eV     1   --> A_1  D_1  S_1  
     e( 13 - 13) =     26.20682  eV     1   --> B_2  D_4  S_4  
     e( 14 - 14) =     31.69227  eV     1   --> A_1  D_1  S_1  
     e( 15 - 15) =     33.22400  eV     1   --> B_2  D_4  S_4  
     e( 16 - 16) =     34.23038  eV     1   --> A_1  D_1  S_1  
     e( 17 - 17) =     38.75165  eV     1   --> A_1  D_1  S_1  
     e( 18 - 18) =     39.26996  eV     1   --> B_1  D_3  S_3  
     e( 19 - 19) =     42.83206  eV     1   --> B_1  D_3  S_3  
     e( 20 - 20) =     44.10710  eV     1   --> A_1  D_1  S_1  

 **************************************************************************

 **************************************************************************

                    xk=(   0.00000,   0.47631,   0.00000  )

     Band symmetry, C_2v (mm2)  point group:

     e(  1 -  1) =    -37.64580  eV     1   --> A_1  D_1  S_1  
     e(  2 -  2) =    -12.54776  eV     1   --> A_1  D_1  S_1  
     e(  3 -  3) =    -11.88717  eV     1   --> B_2  D_4  S_4  
     e(  4 -  4) =    -11.73179  eV     1   --> B_1  D_3  S_3  
     e(  5 -  5) =     11.03806  eV     1   --> A_1  D_1  S_1  
     e(  6 -  6) =     14.01868  eV     1   --> A_1  D_1  S_1  
     e(  7 -  7) =     17.16136  eV     1   --> B_2  D_4  S_4  
     e(  8 -  8) =     17.92175  eV     1   --> A_1  D_1  S_1  
     e(  9 -  9) =     18.96583  eV     1   --> B_1  D_3  S_3  
     e( 10 - 10) =     23.36581  eV     1   --> A_2  D_2  S_2  
     e( 11 - 11) =     25.78824  eV     1   --> B_1  D_3  S_3  
     e( 12 - 12) =     26.15208  eV     1   --> B_2  D_4  S_4  
     e( 13 - 13) =     26.16827  eV     1   --> A_1  D_1  S_1  
     e( 14 - 14) =     31.58483  eV     1   --> A_1  D_1  S_1  
     e( 15 - 15) =     33.40544  eV     1   --> B_2  D_4  S_4  
     e( 16 - 16) =     34.13069  eV     1   --> A_1  D_1  S_1  
     e( 17 - 17) =     39.07201  eV     1   --> A_1  D_1  S_1  
     e( 18 - 18) =     39.61958  eV     1   --> B_1  D_3  S_3  
     e( 19 - 19) =     42.59160  eV     1   --> B_1  D_3  S_3  
     e( 20 - 20) =     43.91895  eV     1   --> A_1  D_1  S_1  

 **************************************************************************

 **************************************************************************

                    xk=(   0.00000,   0.49075,   0.00000  )

     Band symmetry, C_2v (mm2)  point group:

     e(  1 -  1) =    -37.64269  eV     1   --> A_1  D_1  S_1  
     e(  2 -  2) =    -12.56841  eV     1   --> A_1  D_1  S_1  
     e(  3 -  3) =    -11.88310  eV     1   --> B_2  D_4  S_4  
     e(  4 -  4) =    -11.73677  eV     1   --> B_1  D_3  S_3  
     e(  5 -  5) =     11.16877  eV     1   --> A_1  D_1  S_1  
     e(  6 -  6) =     13.88318  eV     1   --> A_1  D_1  S_1  
     e(  7 -  7) =     17.12215  eV     1   --> B_2  D_4  S_4  
     e(  8 -  8) =     17.87409  eV     1   --> A_1  D_1  S_1  
     e(  9 -  9) =     18.96466  eV     1   --> B_1  D_3  S_3  
     e( 10 - 10) =     23.34701  eV     1   --> A_2  D_2  S_2  
     e( 11 - 11) =     25.84103  eV     1   --> B_1  D_3  S_3  
     e( 12 - 12) =     26.10317  eV     1   --> B_2  D_4  S_4  
     e( 13 - 13) =     26.35784  eV     1   --> A_1  D_1  S_1  
     e( 14 - 14) =     31.46716  eV     1   --> A_1  D_1  S_1  
     e( 15 - 15) =     33.57202  eV     1   --> B_2  D_4  S_4  
     e( 16 - 16) =     34.04639  eV     1   --> A_1  D_1  S_1  
     e( 17 - 17) =     39.37620  eV     1   --> A_1  D_1  S_1  
     e( 18 - 18) =     39.95030  eV     1   --> B_1  D_3  S_3  
     e( 19 - 19) =     42.37743  eV     1   --> B_1  D_3  S_3  
     e( 20 - 20) =     43.73394  eV     1   --> A_1  D_1  S_1  

 **************************************************************************

 **************************************************************************

                    xk=(   0.00000,   0.50518,   0.00000  )

     Band symmetry, C_2v (mm2)  point group:

     e(  1 -  1) =    -37.64001  eV     1   --> A_1  D_1  S_1  
     e(  2 -  2) =    -12.58608  eV     1   --> A_1  D_1  S_1  
     e(  3 -  3) =    -11.87962  eV     1   --> B_2  D_4  S_4  
     e(  4 -  4) =    -11.74104  eV     1   --> B_1  D_3  S_3  
     e(  5 -  5) =     11.29170  eV     1   --> A_1  D_1  S_1  
     e(  6 -  6) =     13.75693  eV     1   --> A_1  D_1  S_1  
     e(  7 -  7) =     17.08893  eV     1   --> B_2  D_4  S_4  
     e(  8 -  8) =     17.83240  eV     1   --> A_1  D_1  S_1  
     e(  9 -  9) =     18.96325  eV     1   --> B_1  D_3  S_3  
     e( 10 - 10) =     23.33097  eV     1   --> A_2  D_2  S_2  
     e( 11 - 11) =     25.88843  eV     1   --> B_1  D_3  S_3  
     e( 12 - 12) =     26.06210  eV     1   --> B_2  D_4  S_4  
     e( 13 - 13) =     26.53720  eV     1   --> A_1  D_1  S_1  
     e( 14 - 14) =     31.34542  eV     1   --> A_1  D_1  S_1  
     e( 15 - 15) =     33.72036  eV     1   --> B_2  D_4  S_4  
     e( 16 - 16) =     33.97842  eV     1   --> A_1  D_1  S_1  
     e( 17 - 17) =     39.65969  eV     1   --> A_1  D_1  S_1  
     e( 18 - 18) =     40.25659  eV     1   --> B_1  D_3  S_3  
     e( 19 - 19) =     42.18998  eV     1   --> B_1  D_3  S_3  
     e( 20 - 20) =     43.55734  eV     1   --> A_1  D_1  S_1  

 **************************************************************************

 **************************************************************************

                    xk=(   0.00000,   0.51962,   0.00000  )

     Band symmetry, C_2v (mm2)  point group:

     e(  1 -  1) =    -37.63781  eV     1   --> A_1  D_1  S_1  
     e(  2 -  2) =    -12.60066  eV     1   --> A_1  D_1  S_1  
     e(  3 -  3) =    -11.87673  eV     1   --> B_2  D_4  S_4  
     e(  4 -  4) =    -11.74457  eV     1   --> B_1  D_3  S_3  
     e(  5 -  5) =     11.40289  eV     1   --> A_1  D_1  S_1  
     e(  6 -  6) =     13.64242  eV     1   --> A_1  D_1  S_1  
     e(  7 -  7) =     17.06156  eV     1   --> B_2  D_4  S_4  
     e(  8 -  8) =     17.79731  eV     1   --> A_1  D_1  S_1  
     e(  9 -  9) =     18.96173  eV     1   --> B_1  D_3  S_3  
     e( 10 - 10) =     23.31774  eV     1   --> A_2  D_2  S_2  
     e( 11 - 11) =     25.92914  eV     1   --> B_1  D_3  S_3  
     e( 12 - 12) =     26.02670  eV     1   --> B_2  D_4  S_4  
     e( 13 - 13) =     26.69938  eV     1   --> A_1  D_1  S_1  
     e( 14 - 14) =     31.22610  eV     1   --> A_1  D_1  S_1  
     e( 15 - 15) =     33.84676  eV     1   --> B_2  D_4  S_4  
     e( 16 - 16) =     33.92453  eV     1   --> A_1  D_1  S_1  
     e( 17 - 17) =     39.91481  eV     1   --> A_1  D_1  S_1  
     e( 18 - 18) =     40.53175  eV     1   --> B_1  D_3  S_3  
     e( 19 - 19) =     42.02880  eV     1   --> B_1  D_3  S_3  
     e( 20 - 20) =     43.38974  eV     1   --> A_1  D_1  S_1  

 **************************************************************************

 **************************************************************************

                    xk=(   0.00000,   0.53405,   0.00000  )

     Band symmetry, C_2v (mm2)  point group:

     e(  1 -  1) =    -37.63608  eV     1   --> A_1  D_1  S_1  
     e(  2 -  2) =    -12.61207  eV     1   --> A_1  D_1  S_1  
     e(  3 -  3) =    -11.87447  eV     1   --> B_2  D_4  S_4  
     e(  4 -  4) =    -11.74733  eV     1   --> B_1  D_3  S_3  
     e(  5 -  5) =     11.49874  eV     1   --> A_1  D_1  S_1  
     e(  6 -  6) =     13.54438  eV     1   --> A_1  D_1  S_1  
     e(  7 -  7) =     17.04032  eV     1   --> B_2  D_4  S_4  
     e(  8 -  8) =     17.76946  eV     1   --> A_1  D_1  S_1  
     e(  9 -  9) =     18.96036  eV     1   --> B_1  D_3  S_3  
     e( 10 - 10) =     23.30740  eV     1   --> A_2  D_2  S_2  
     e( 11 - 11) =     25.96204  eV     1   --> B_1  D_3  S_3  
     e( 12 - 12) =     25.99878  eV     1   --> B_2  D_4  S_4  
     e( 13 - 13) =     26.83745  eV     1   --> A_1  D_1  S_1  
     e( 14 - 14) =     31.12008  eV     1   --> A_1  D_1  S_1  
     e( 15 - 15) =     33.88396  eV     1   --> A_1  D_1  S_1  
     e( 16 - 16) =     33.94897  eV     1   --> B_2  D_4  S_4  
     e( 17 - 17) =     40.13484  eV     1   --> A_1  D_1  S_1  
     e( 18 - 18) =     40.76868  eV     1   --> B_1  D_3  S_3  
     e( 19 - 19) =     41.89399  eV     1   --> B_1  D_3  S_3  
     e( 20 - 20) =     43.23948  eV     1   --> A_1  D_1  S_1  

 **************************************************************************

 **************************************************************************

                    xk=(   0.00000,   0.54848,   0.00000  )

     Band symmetry, C_2v (mm2)  point group:

     e(  1 -  1) =    -37.63483  eV     1   --> A_1  D_1  S_1  
     e(  2 -  2) =    -12.62027  eV     1   --> A_1  D_1  S_1  
     e(  3 -  3) =    -11.87284  eV     1   --> B_2  D_4  S_4  
     e(  4 -  4) =    -11.74932  eV     1   --> B_1  D_3  S_3  
     e(  5 -  5) =     11.57356  eV     1   --> A_1  D_1  S_1  
     e(  6 -  6) =     13.46806  eV     1   --> A_1  D_1  S_1  
     e(  7 -  7) =     17.02514  eV     1   --> B_2  D_4  S_4  
     e(  8 -  8) =     17.74925  eV     1   --> A_1  D_1  S_1  
     e(  9 -  9) =     18.95928  eV     1   --> B_1  D_3  S_3  
     e( 10 - 10) =     23.29999  eV     1   --> A_2  D_2  S_2  
     e( 11 - 11) =     25.97863  eV     1   --> B_2  D_4  S_4  
     e( 12 - 12) =     25.98623  eV     1   --> B_1  D_3  S_3  
     e( 13 - 13) =     26.94371  eV     1   --> A_1  D_1  S_1  
     e( 14 - 14) =     31.03550  eV     1   --> A_1  D_1  S_1  
     e( 15 - 15) =     33.85596  eV     1   --> A_1  D_1  S_1  
     e( 16 - 16) =     34.02403  eV     1   --> B_2  D_4  S_4  
     e( 17 - 17) =     40.30752  eV     1   --> A_1  D_1  S_1  
     e( 18 - 18) =     40.95837  eV     1   --> B_1  D_3  S_3  
     e( 19 - 19) =     41.78575  eV     1   --> B_1  D_3  S_3  
     e( 20 - 20) =     43.11743  eV     1   --> A_1  D_1  S_1  

 **************************************************************************

 **************************************************************************

                    xk=(   0.00000,   0.56292,   0.00000  )

     Band symmetry, C_2v (mm2)  point group:

     e(  1 -  1) =    -37.63409  eV     1   --> A_1  D_1  S_1  
     e(  2 -  2) =    -12.62521  eV     1   --> A_1  D_1  S_1  
     e(  3 -  3) =    -11.87186  eV     1   --> B_2  D_4  S_4  
     e(  4 -  4) =    -11.75051  eV     1   --> B_1  D_3  S_3  
     e(  5 -  5) =     11.62132  eV     1   --> A_1  D_1  S_1  
     e(  6 -  6) =     13.41871  eV     1   --> A_1  D_1  S_1  
     e(  7 -  7) =     17.01568  eV     1   --> B_2  D_4  S_4  
     e(  8 -  8) =     17.73698  eV     1   --> A_1  D_1  S_1  
     e(  9 -  9) =     18.95829  eV     1   --> B_1  D_3  S_3  
     e( 10 - 10) =     23.29552  eV     1   --> A_2  D_2  S_2  
     e( 11 - 11) =     25.96618  eV     1   --> B_2  D_4  S_4  
     e( 12 - 12) =     26.00097  eV     1   --> B_1  D_3  S_3  
     e( 13 - 13) =     27.01079  eV     1   --> A_1  D_1  S_1  
     e( 14 - 14) =     30.98042  eV     1   --> A_1  D_1  S_1  
     e( 15 - 15) =     33.83930  eV     1   --> A_1  D_1  S_1  
     e( 16 - 16) =     34.06856  eV     1   --> B_2  D_4  S_4  
     e( 17 - 17) =     40.41824  eV     1   --> A_1  D_1  S_1  
     e( 18 - 18) =     41.08379  eV     1   --> B_1  D_3  S_3  
     e( 19 - 19) =     41.70912  eV     1   --> B_1  D_3  S_3  
     e( 20 - 20) =     43.03587  eV     1   --> A_1  D_1  S_1  

 **************************************************************************

 **************************************************************************

                    xk=(   0.00000,   0.57735,   0.00000  )

     point group D_2h (mmm) 
     there are  8 classes
     the character table:

       E     C2    C2'   C2''  i     s_v   s_v'  s_v''
A_g    1.00  1.00  1.00  1.00  1.00  1.00  1.00  1.00
B_1g   1.00  1.00 -1.00 -1.00  1.00  1.00 -1.00 -1.00
B_2g   1.00 -1.00  1.00 -1.00  1.00 -1.00  1.00 -1.00
B_3g   1.00 -1.00 -1.00  1.00  1.00 -1.00 -1.00  1.00
A_u    1.00  1.00  1.00  1.00 -1.00 -1.00 -1.00 -1.00
B_1u   1.00  1.00 -1.00 -1.00 -1.00 -1.00  1.00  1.00
B_2u   1.00 -1.00  1.00 -1.00 -1.00  1.00 -1.00  1.00
B_3u   1.00 -1.00 -1.00  1.00 -1.00  1.00  1.00 -1.00

     the symmetry operations in each class and the name of the first element:

     E        1
                                                                 
     C2       2
                                                                 
     C2'      4
                                                                 
     C2''     3
                                                                 
     i        5
                                                                 
     s_v      6
                                                                 
     s_v'     8
                                                                 
     s_v''    7
                                                                 

     Band symmetry, D_2h (mmm)  point group:

     e(  1 -  1) =    -37.63384  eV     1   --> A_g            
     e(  2 -  2) =    -12.62686  eV     1   --> B_3u           
     e(  3 -  3) =    -11.87154  eV     1   --> B_1u           
     e(  4 -  4) =    -11.75091  eV     1   --> B_2u           
     e(  5 -  5) =     11.63797  eV     1   --> A_g            
     e(  6 -  6) =     13.40177  eV     1   --> B_3u           
     e(  7 -  7) =     17.01264  eV     1   --> B_2g           
     e(  8 -  8) =     17.73288  eV     1   --> A_g            
     e(  9 -  9) =     18.95805  eV     1   --> B_2u           
     e( 10 - 10) =     23.29403  eV     1   --> B_3g           
     e( 11 - 11) =     25.96211  eV     1   --> B_1u           
     e( 12 - 12) =     26.00595  eV     1   --> B_1g           
     e( 13 - 13) =     27.03385  eV     1   --> A_g            
     e( 14 - 14) =     30.96144  eV     1   --> B_3u           
     e( 15 - 15) =     33.83389  eV     1   --> A_g            
     e( 16 - 16) =     34.08399  eV     1   --> B_2g           
     e( 17 - 17) =     40.45714  eV     1   --> A_g            
     e( 18 - 18) =     41.13165  eV     1   --> B_1g           
     e( 19 - 19) =     41.67950  eV     1   --> B_2u           
     e( 20 - 20) =     43.00727  eV     1   --> B_3u           

 **************************************************************************

 **************************************************************************

                    xk=(   0.01667,   0.57735,   0.00000  )

     point group C_2v (mm2) 
     there are  4 classes
     the character table:

       E     C2    s_v   s_v' 
A_1    1.00  1.00  1.00  1.00
A_2    1.00  1.00 -1.00 -1.00
B_1    1.00 -1.00  1.00 -1.00
B_2    1.00 -1.00 -1.00  1.00

     the symmetry operations in each class and the name of the first element:

     E        1
                                                                 
     C2       2
                                                                 
     s_v      4
                                                                 
     s_v'     3
                                                                 

     Band symmetry, C_2v (mm2)  point group:

     e(  1 -  1) =    -37.63373  eV     1   --> A_1  D_1  S_1  
     e(  2 -  2) =    -12.62589  eV     1   --> B_2  D_4  S_4  
     e(  3 -  3) =    -11.87140  eV     1   --> B_1  D_3  S_3  
     e(  4 -  4) =    -11.75302  eV     1   --> A_1  D_1  S_1  
     e(  5 -  5) =     11.64420  eV     1   --> A_1  D_1  S_1  
     e(  6 -  6) =     13.40305  eV     1   --> B_2  D_4  S_4  
     e(  7 -  7) =     17.01699  eV     1   --> A_2  D_2  S_2  
     e(  8 -  8) =     17.69849  eV     1   --> A_1  D_1  S_1  
     e(  9 -  9) =     18.99271  eV     1   --> A_1  D_1  S_1  
     e( 10 - 10) =     23.24094  eV     1   --> B_1  D_3  S_3  
     e( 11 - 11) =     25.98607  eV     1   --> B_2  D_4  S_4  
     e( 12 - 12) =     26.02311  eV     1   --> B_1  D_3  S_3  
     e( 13 - 13) =     27.02443  eV     1   --> A_1  D_1  S_1  
     e( 14 - 14) =     30.98955  eV     1   --> B_2  D_4  S_4  
     e( 15 - 15) =     33.84972  eV     1   --> A_1  D_1  S_1  
     e( 16 - 16) =     34.07854  eV     1   --> A_2  D_2  S_2  
     e( 17 - 17) =     40.42348  eV     1   --> A_1  D_1  S_1  
     e( 18 - 18) =     41.12663  eV     1   --> B_2  D_4  S_4  
     e( 19 - 19) =     41.70726  eV     1   --> A_1  D_1  S_1  
     e( 20 - 20) =     43.01589  eV     1   --> B_2  D_4  S_4  

 **************************************************************************

 **************************************************************************

                    xk=(   0.03333,   0.57735,   0.00000  )

     Band symmetry, C_2v (mm2)  point group:

     e(  1 -  1) =    -37.63340  eV     1   --> A_1  D_1  S_1  
     e(  2 -  2) =    -12.62301  eV     1   --> B_2  D_4  S_4  
     e(  3 -  3) =    -11.87097  eV     1   --> B_1  D_3  S_3  
     e(  4 -  4) =    -11.75933  eV     1   --> A_1  D_1  S_1  
     e(  5 -  5) =     11.66289  eV     1   --> A_1  D_1  S_1  
     e(  6 -  6) =     13.40669  eV     1   --> B_2  D_4  S_4  
     e(  7 -  7) =     17.03035  eV     1   --> A_2  D_2  S_2  
     e(  8 -  8) =     17.60434  eV     1   --> A_1  D_1  S_1  
     e(  9 -  9) =     19.08731  eV     1   --> A_1  D_1  S_1  
     e( 10 - 10) =     23.09448  eV     1   --> B_1  D_3  S_3  
     e( 11 - 11) =     25.92779  eV     1   --> B_2  D_4  S_4  
     e( 12 - 12) =     26.19350  eV     1   --> B_1  D_3  S_3  
     e( 13 - 13) =     26.99637  eV     1   --> A_1  D_1  S_1  
     e( 14 - 14) =     31.07215  eV     1   --> B_2  D_4  S_4  
     e( 15 - 15) =     33.89686  eV     1   --> A_1  D_1  S_1  
     e( 16 - 16) =     34.06368  eV     1   --> A_2  D_2  S_2  
     e( 17 - 17) =     40.33198  eV     1   --> A_1  D_1  S_1  
     e( 18 - 18) =     41.10308  eV     1   --> B_2  D_4  S_4  
     e( 19 - 19) =     41.78120  eV     1   --> A_1  D_1  S_1  
     e( 20 - 20) =     43.04166  eV     1   --> B_2  D_4  S_4  

 **************************************************************************

 **************************************************************************

                    xk=(   0.05000,   0.57735,   0.00000  )

     Band symmetry, C_2v (mm2)  point group:

     e(  1 -  1) =    -37.63285  eV     1   --> A_1  D_1  S_1  
     e(  2 -  2) =    -12.61822  eV     1   --> B_2  D_4  S_4  
     e(  3 -  3) =    -11.87027  eV     1   --> B_1  D_3  S_3  
     e(  4 -  4) =    -11.76974  eV     1   --> A_1  D_1  S_1  
     e(  5 -  5) =     11.69364  eV     1   --> A_1  D_1  S_1  
     e(  6 -  6) =     13.41221  eV     1   --> B_2  D_4  S_4  
     e(  7 -  7) =     17.05205  eV     1   --> A_2  D_2  S_2  
     e(  8 -  8) =     17.46850  eV     1   --> A_1  D_1  S_1  
     e(  9 -  9) =     19.22394  eV     1   --> A_1  D_1  S_1  
     e( 10 - 10) =     22.88208  eV     1   --> B_1  D_3  S_3  
     e( 11 - 11) =     25.83512  eV     1   --> B_2  D_4  S_4  
     e( 12 - 12) =     26.44515  eV     1   --> B_1  D_3  S_3  
     e( 13 - 13) =     26.94954  eV     1   --> A_1  D_1  S_1  
     e( 14 - 14) =     31.20516  eV     1   --> B_2  D_4  S_4  
     e( 15 - 15) =     33.97480  eV     1   --> A_1  D_1  S_1  
     e( 16 - 16) =     34.03662  eV     1   --> A_2  D_2  S_2  
     e( 17 - 17) =     40.19894  eV     1   --> A_1  D_1  S_1  
     e( 18 - 18) =     41.06361  eV     1   --> B_2  D_4  S_4  
     e( 19 - 19) =     41.88173  eV     1   --> A_1  D_1  S_1  
     e( 20 - 20) =     43.08263  eV     1   --> B_2  D_4  S_4  

 **************************************************************************

 **************************************************************************

                    xk=(   0.06667,   0.57735,   0.00000  )

     Band symmetry, C_2v (mm2)  point group:

     e(  1 -  1) =    -37.63211  eV     1   --> A_1  D_1  S_1  
     e(  2 -  2) =    -12.61154  eV     1   --> B_2  D_4  S_4  
     e(  3 -  3) =    -11.86932  eV     1   --> B_1  D_3  S_3  
     e(  4 -  4) =    -11.78413  eV     1   --> A_1  D_1  S_1  
     e(  5 -  5) =     11.73638  eV     1   --> A_1  D_1  S_1  
     e(  6 -  6) =     13.41997  eV     1   --> B_2  D_4  S_4  
     e(  7 -  7) =     17.08241  eV     1   --> A_2  D_2  S_2  
     e(  8 -  8) =     17.30618  eV     1   --> A_1  D_1  S_1  
     e(  9 -  9) =     19.38790  eV     1   --> A_1  D_1  S_1  
     e( 10 - 10) =     22.62923  eV     1   --> B_1  D_3  S_3  
     e( 11 - 11) =     25.71362  eV     1   --> B_2  D_4  S_4  
     e( 12 - 12) =     26.75138  eV     1   --> B_1  D_3  S_3  
     e( 13 - 13) =     26.88449  eV     1   --> A_1  D_1  S_1  
     e( 14 - 14) =     31.38283  eV     1   --> B_2  D_4  S_4  
     e( 15 - 15) =     33.99900  eV     1   --> A_2  D_2  S_2  
     e( 16 - 16) =     34.08196  eV     1   --> A_1  D_1  S_1  
     e( 17 - 17) =     40.04115  eV     1   --> A_1  D_1  S_1  
     e( 18 - 18) =     41.01091  eV     1   --> B_2  D_4  S_4  
     e( 19 - 19) =     41.99080  eV     1   --> A_1  D_1  S_1  
     e( 20 - 20) =     43.13611  eV     1   --> B_2  D_4  S_4  

 **************************************************************************

 **************************************************************************

                    xk=(   0.08333,   0.57735,   0.00000  )

     Band symmetry, C_2v (mm2)  point group:

     e(  1 -  1) =    -37.63118  eV     1   --> A_1  D_1  S_1  
     e(  2 -  2) =    -12.60299  eV     1   --> B_2  D_4  S_4  
     e(  3 -  3) =    -11.86812  eV     1   --> B_1  D_3  S_3  
     e(  4 -  4) =    -11.80228  eV     1   --> A_1  D_1  S_1  
     e(  5 -  5) =     11.79099  eV     1   --> A_1  D_1  S_1  
     e(  6 -  6) =     13.43020  eV     1   --> B_2  D_4  S_4  
     e(  7 -  7) =     17.12182  eV     1   --> A_2  D_2  S_2  
     e(  8 -  8) =     17.12616  eV     1   --> A_1  D_1  S_1  
     e(  9 -  9) =     19.57122  eV     1   --> A_1  D_1  S_1  
     e( 10 - 10) =     22.35436  eV     1   --> B_1  D_3  S_3  
     e( 11 - 11) =     25.56945  eV     1   --> B_2  D_4  S_4  
     e( 12 - 12) =     26.80186  eV     1   --> A_1  D_1  S_1  
     e( 13 - 13) =     27.09601  eV     1   --> B_1  D_3  S_3  
     e( 14 - 14) =     31.59911  eV     1   --> B_2  D_4  S_4  
     e( 15 - 15) =     33.95308  eV     1   --> A_2  D_2  S_2  
     e( 16 - 16) =     34.21973  eV     1   --> A_1  D_1  S_1  
     e( 17 - 17) =     39.86928  eV     1   --> A_1  D_1  S_1  
     e( 18 - 18) =     40.94851  eV     1   --> B_2  D_4  S_4  
     e( 19 - 19) =     42.09508  eV     1   --> A_1  D_1  S_1  
     e( 20 - 20) =     43.20213  eV     1   --> B_2  D_4  S_4  

 **************************************************************************

 **************************************************************************

                    xk=(   0.10000,   0.57735,   0.00000  )

     Band symmetry, C_2v (mm2)  point group:

     e(  1 -  1) =    -37.63008  eV     1   --> A_1  D_1  S_1  
     e(  2 -  2) =    -12.59262  eV     1   --> B_2  D_4  S_4  
     e(  3 -  3) =    -11.86670  eV     1   --> B_1  D_3  S_3  
     e(  4 -  4) =    -11.82397  eV     1   --> A_1  D_1  S_1  
     e(  5 -  5) =     11.85689  eV     1   --> A_1  D_1  S_1  
     e(  6 -  6) =     13.44187  eV     1   --> B_2  D_4  S_4  
     e(  7 -  7) =     16.93372  eV     1   --> A_1  D_1  S_1  
     e(  8 -  8) =     17.16941  eV     1   --> A_2  D_2  S_2  
     e(  9 -  9) =     19.76870  eV     1   --> A_1  D_1  S_1  
     e( 10 - 10) =     22.06869  eV     1   --> B_1  D_3  S_3  
     e( 11 - 11) =     25.40834  eV     1   --> B_2  D_4  S_4  
     e( 12 - 12) =     26.70218  eV     1   --> A_1  D_1  S_1  
     e( 13 - 13) =     27.46525  eV     1   --> B_1  D_3  S_3  
     e( 14 - 14) =     31.84767  eV     1   --> B_2  D_4  S_4  
     e( 15 - 15) =     33.89503  eV     1   --> A_2  D_2  S_2  
     e( 16 - 16) =     34.38596  eV     1   --> A_1  D_1  S_1  
     e( 17 - 17) =     39.68887  eV     1   --> A_1  D_1  S_1  
     e( 18 - 18) =     40.87083  eV     1   --> B_2  D_4  S_4  
     e( 19 - 19) =     42.18435  eV     1   --> A_1  D_1  S_1  
     e( 20 - 20) =     43.27550  eV     1   --> B_2  D_4  S_4  

 **************************************************************************

 **************************************************************************

                    xk=(   0.11667,   0.57735,   0.00000  )

     Band symmetry, C_2v (mm2)  point group:

     e(  1 -  1) =    -37.62884  eV     1   --> A_1  D_1  S_1  
     e(  2 -  2) =    -12.58046  eV     1   --> B_2  D_4  S_4  
     e(  3 -  3) =    -11.86509  eV     1   --> B_1  D_3  S_3  
     e(  4 -  4) =    -11.84890  eV     1   --> A_1  D_1  S_1  
     e(  5 -  5) =     11.93408  eV     1   --> A_1  D_1  S_1  
     e(  6 -  6) =     13.45638  eV     1   --> B_2  D_4  S_4  
     e(  7 -  7) =     16.73243  eV     1   --> A_1  D_1  S_1  
     e(  8 -  8) =     17.22558  eV     1   --> A_2  D_2  S_2  
     e(  9 -  9) =     19.97836  eV     1   --> A_1  D_1  S_1  
     e( 10 - 10) =     21.77948  eV     1   --> B_1  D_3  S_3  
[...]
     e(  9 -  9) =     20.13970  eV     1   --> B_1  D_3  S_3  
     e( 10 - 10) =     22.29529  eV     1   --> A_1  D_1  S_1  
     e( 11 - 11) =     24.12472  eV     1   --> A_1  D_1  S_1  
     e( 12 - 12) =     24.25806  eV     1   --> A_2  D_2  S_2  
     e( 13 - 13) =     24.70150  eV     1   --> B_2  D_4  S_4  
     e( 14 - 14) =     30.85031  eV     1   --> B_1  D_3  S_3  
     e( 15 - 15) =     34.89116  eV     1   --> B_2  D_4  S_4  
     e( 16 - 16) =     35.30443  eV     1   --> A_2  D_2  S_2  
     e( 17 - 17) =     37.44803  eV     1   --> A_2  D_2  S_2  
     e( 18 - 18) =     38.82104  eV     1   --> B_2  D_4  S_4  
     e( 19 - 19) =     41.06375  eV     1   --> A_1  D_1  S_1  
     e( 20 - 20) =     44.19723  eV     1   --> A_1  D_1  S_1  

 **************************************************************************

 **************************************************************************

                    xk=(   0.08333,   0.14434,   0.46617  )

     Band symmetry, C_2v (mm2)  point group:

     e(  1 -  1) =    -37.72315  eV     1   --> A_1  D_1  S_1  
     e(  2 -  2) =    -12.57757  eV     1   --> B_2  D_4  S_4  
     e(  3 -  3) =    -11.65744  eV     1   --> A_1  D_1  S_1  
     e(  4 -  4) =    -11.49148  eV     1   --> B_1  D_3  S_3  
     e(  5 -  5) =     10.98285  eV     1   --> B_2  D_4  S_4  
     e(  6 -  6) =     14.44090  eV     1   --> A_1  D_1  S_1  
     e(  7 -  7) =     18.48329  eV     1   --> A_2  D_2  S_2  
     e(  8 -  8) =     18.83248  eV     1   --> B_2  D_4  S_4  
     e(  9 -  9) =     20.31543  eV     1   --> B_1  D_3  S_3  
     e( 10 - 10) =     22.15310  eV     1   --> A_1  D_1  S_1  
     e( 11 - 11) =     24.01519  eV     1   --> A_2  D_2  S_2  
     e( 12 - 12) =     24.06641  eV     1   --> A_1  D_1  S_1  
     e( 13 - 13) =     24.38991  eV     1   --> B_2  D_4  S_4  
     e( 14 - 14) =     30.57898  eV     1   --> B_1  D_3  S_3  
     e( 15 - 15) =     35.03235  eV     1   --> B_2  D_4  S_4  
     e( 16 - 16) =     35.28531  eV     1   --> A_2  D_2  S_2  
     e( 17 - 17) =     37.31113  eV     1   --> A_2  D_2  S_2  
     e( 18 - 18) =     38.54693  eV     1   --> B_2  D_4  S_4  
     e( 19 - 19) =     41.34767  eV     1   --> A_1  D_1  S_1  
     e( 20 - 20) =     44.57687  eV     1   --> A_1  D_1  S_1  

 **************************************************************************

 **************************************************************************

                    xk=(   0.07500,   0.12990,   0.46617  )

     Band symmetry, C_2v (mm2)  point group:

     e(  1 -  1) =    -37.72854  eV     1   --> A_1  D_1  S_1  
     e(  2 -  2) =    -12.58670  eV     1   --> B_2  D_4  S_4  
     e(  3 -  3) =    -11.61931  eV     1   --> A_1  D_1  S_1  
     e(  4 -  4) =    -11.48139  eV     1   --> B_1  D_3  S_3  
     e(  5 -  5) =     10.98944  eV     1   --> B_2  D_4  S_4  
     e(  6 -  6) =     14.30521  eV     1   --> A_1  D_1  S_1  
     e(  7 -  7) =     18.76117  eV     1   --> A_2  D_2  S_2  
     e(  8 -  8) =     19.04003  eV     1   --> B_2  D_4  S_4  
     e(  9 -  9) =     20.48944  eV     1   --> B_1  D_3  S_3  
     e( 10 - 10) =     22.02368  eV     1   --> A_1  D_1  S_1  
     e( 11 - 11) =     23.76819  eV     1   --> A_2  D_2  S_2  
     e( 12 - 12) =     24.01328  eV     1   --> A_1  D_1  S_1  
     e( 13 - 13) =     24.07934  eV     1   --> B_2  D_4  S_4  
     e( 14 - 14) =     30.31086  eV     1   --> B_1  D_3  S_3  
     e( 15 - 15) =     35.16964  eV     1   --> B_2  D_4  S_4  
     e( 16 - 16) =     35.25392  eV     1   --> A_2  D_2  S_2  
     e( 17 - 17) =     37.20375  eV     1   --> A_2  D_2  S_2  
     e( 18 - 18) =     38.29172  eV     1   --> B_2  D_4  S_4  
     e( 19 - 19) =     41.60292  eV     1   --> A_1  D_1  S_1  
     e( 20 - 20) =     44.96618  eV     1   --> A_1  D_1  S_1  

 **************************************************************************

 **************************************************************************

                    xk=(   0.06667,   0.11547,   0.46617  )

     Band symmetry, C_2v (mm2)  point group:

     e(  1 -  1) =    -37.73349  eV     1   --> A_1  D_1  S_1  
     e(  2 -  2) =    -12.59507  eV     1   --> B_2  D_4  S_4  
     e(  3 -  3) =    -11.58389  eV     1   --> A_1  D_1  S_1  
     e(  4 -  4) =    -11.47240  eV     1   --> B_1  D_3  S_3  
     e(  5 -  5) =     10.99550  eV     1   --> B_2  D_4  S_4  
     e(  6 -  6) =     14.18132  eV     1   --> A_1  D_1  S_1  
     e(  7 -  7) =     19.04031  eV     1   --> A_2  D_2  S_2  
     e(  8 -  8) =     19.25650  eV     1   --> B_2  D_4  S_4  
     e(  9 -  9) =     20.65926  eV     1   --> B_1  D_3  S_3  
     e( 10 - 10) =     21.90732  eV     1   --> A_1  D_1  S_1  
     e( 11 - 11) =     23.51632  eV     1   --> A_2  D_2  S_2  
     e( 12 - 12) =     23.76854  eV     1   --> B_2  D_4  S_4  
     e( 13 - 13) =     23.96544  eV     1   --> A_1  D_1  S_1  
     e( 14 - 14) =     30.05214  eV     1   --> B_1  D_3  S_3  
     e( 15 - 15) =     35.20920  eV     1   --> A_2  D_2  S_2  
     e( 16 - 16) =     35.30221  eV     1   --> B_2  D_4  S_4  
     e( 17 - 17) =     37.12267  eV     1   --> A_2  D_2  S_2  
     e( 18 - 18) =     38.05472  eV     1   --> B_2  D_4  S_4  
     e( 19 - 19) =     41.83094  eV     1   --> A_1  D_1  S_1  
     e( 20 - 20) =     45.36196  eV     1   --> A_1  D_1  S_1  

 **************************************************************************

 **************************************************************************

                    xk=(   0.05833,   0.10104,   0.46617  )

     Band symmetry, C_2v (mm2)  point group:

     e(  1 -  1) =    -37.73795  eV     1   --> A_1  D_1  S_1  
     e(  2 -  2) =    -12.60260  eV     1   --> B_2  D_4  S_4  
     e(  3 -  3) =    -11.55158  eV     1   --> A_1  D_1  S_1  
     e(  4 -  4) =    -11.46448  eV     1   --> B_1  D_3  S_3  
     e(  5 -  5) =     11.00112  eV     1   --> B_2  D_4  S_4  
     e(  6 -  6) =     14.07005  eV     1   --> A_1  D_1  S_1  
     e(  7 -  7) =     19.32049  eV     1   --> A_2  D_2  S_2  
     e(  8 -  8) =     19.48191  eV     1   --> B_2  D_4  S_4  
     e(  9 -  9) =     20.82184  eV     1   --> B_1  D_3  S_3  
     e( 10 - 10) =     21.80426  eV     1   --> A_1  D_1  S_1  
     e( 11 - 11) =     23.26167  eV     1   --> A_2  D_2  S_2  
     e( 12 - 12) =     23.46018  eV     1   --> B_2  D_4  S_4  
     e( 13 - 13) =     23.92295  eV     1   --> A_1  D_1  S_1  
     e( 14 - 14) =     29.80528  eV     1   --> B_1  D_3  S_3  
     e( 15 - 15) =     35.15531  eV     1   --> A_2  D_2  S_2  
     e( 16 - 16) =     35.42986  eV     1   --> B_2  D_4  S_4  
     e( 17 - 17) =     37.06524  eV     1   --> A_2  D_2  S_2  
     e( 18 - 18) =     37.83715  eV     1   --> B_2  D_4  S_4  
     e( 19 - 19) =     42.03067  eV     1   --> A_1  D_1  S_1  
     e( 20 - 20) =     45.74253  eV     1   --> B_1  D_3  S_3  

 **************************************************************************

 **************************************************************************

                    xk=(   0.05000,   0.08660,   0.46617  )

     Band symmetry, C_2v (mm2)  point group:

     e(  1 -  1) =    -37.74189  eV     1   --> A_1  D_1  S_1  
     e(  2 -  2) =    -12.60925  eV     1   --> B_2  D_4  S_4  
     e(  3 -  3) =    -11.52276  eV     1   --> A_1  D_1  S_1  
     e(  4 -  4) =    -11.45765  eV     1   --> B_1  D_3  S_3  
     e(  5 -  5) =     11.00618  eV     1   --> B_2  D_4  S_4  
     e(  6 -  6) =     13.97211  eV     1   --> A_1  D_1  S_1  
     e(  7 -  7) =     19.60091  eV     1   --> A_2  D_2  S_2  
     e(  8 -  8) =     19.71564  eV     1   --> B_2  D_4  S_4  
     e(  9 -  9) =     20.97400  eV     1   --> B_1  D_3  S_3  
     e( 10 - 10) =     21.71467  eV     1   --> A_1  D_1  S_1  
     e( 11 - 11) =     23.00382  eV     1   --> A_2  D_2  S_2  
     e( 12 - 12) =     23.15435  eV     1   --> B_2  D_4  S_4  
     e( 13 - 13) =     23.88592  eV     1   --> A_1  D_1  S_1  
     e( 14 - 14) =     29.57673  eV     1   --> B_1  D_3  S_3  
     e( 15 - 15) =     35.09800  eV     1   --> A_2  D_2  S_2  
     e( 16 - 16) =     35.55161  eV     1   --> B_2  D_4  S_4  
     e( 17 - 17) =     37.02629  eV     1   --> A_2  D_2  S_2  
     e( 18 - 18) =     37.63885  eV     1   --> B_2  D_4  S_4  
     e( 19 - 19) =     42.20337  eV     1   --> A_1  D_1  S_1  
     e( 20 - 20) =     46.12424  eV     1   --> B_1  D_3  S_3  

 **************************************************************************

 **************************************************************************

                    xk=(   0.04167,   0.07217,   0.46617  )

     Band symmetry, C_2v (mm2)  point group:

     e(  1 -  1) =    -37.74527  eV     1   --> A_1  D_1  S_1  
     e(  2 -  2) =    -12.61496  eV     1   --> B_2  D_4  S_4  
     e(  3 -  3) =    -11.49776  eV     1   --> A_1  D_1  S_1  
     e(  4 -  4) =    -11.45187  eV     1   --> B_1  D_3  S_3  
     e(  5 -  5) =     11.01082  eV     1   --> B_2  D_4  S_4  
     e(  6 -  6) =     13.88818  eV     1   --> A_1  D_1  S_1  
     e(  7 -  7) =     19.88127  eV     1   --> A_2  D_2  S_2  
     e(  8 -  8) =     19.95687  eV     1   --> B_2  D_4  S_4  
     e(  9 -  9) =     21.11220  eV     1   --> B_1  D_3  S_3  
     e( 10 - 10) =     21.63869  eV     1   --> A_1  D_1  S_1  
     e( 11 - 11) =     22.74438  eV     1   --> A_2  D_2  S_2  
     e( 12 - 12) =     22.85216  eV     1   --> B_2  D_4  S_4  
     e( 13 - 13) =     23.85448  eV     1   --> A_1  D_1  S_1  
     e( 14 - 14) =     29.37296  eV     1   --> B_1  D_3  S_3  
     e( 15 - 15) =     35.04489  eV     1   --> A_2  D_2  S_2  
     e( 16 - 16) =     35.66641  eV     1   --> B_2  D_4  S_4  
     e( 17 - 17) =     37.00126  eV     1   --> A_2  D_2  S_2  
     e( 18 - 18) =     37.46155  eV     1   --> B_2  D_4  S_4  
     e( 19 - 19) =     42.35017  eV     1   --> A_1  D_1  S_1  
     e( 20 - 20) =     46.51497  eV     1   --> B_1  D_3  S_3  

 **************************************************************************

 **************************************************************************

                    xk=(   0.03333,   0.05774,   0.46617  )

     Band symmetry, C_2v (mm2)  point group:

     e(  1 -  1) =    -37.74808  eV     1   --> A_1  D_1  S_1  
     e(  2 -  2) =    -12.61969  eV     1   --> B_2  D_4  S_4  
     e(  3 -  3) =    -11.47689  eV     1   --> A_1  D_1  S_1  
     e(  4 -  4) =    -11.44716  eV     1   --> B_1  D_3  S_3  
     e(  5 -  5) =     11.01480  eV     1   --> B_2  D_4  S_4  
     e(  6 -  6) =     13.81874  eV     1   --> A_1  D_1  S_1  
     e(  7 -  7) =     20.15834  eV     1   --> A_2  D_2  S_2  
     e(  8 -  8) =     20.20378  eV     1   --> B_2  D_4  S_4  
     e(  9 -  9) =     21.23251  eV     1   --> B_1  D_3  S_3  
     e( 10 - 10) =     21.57639  eV     1   --> A_1  D_1  S_1  
     e( 11 - 11) =     22.48150  eV     1   --> A_2  D_2  S_2  
     e( 12 - 12) =     22.55501  eV     1   --> B_2  D_4  S_4  
     e( 13 - 13) =     23.82872  eV     1   --> A_1  D_1  S_1  
     e( 14 - 14) =     29.19614  eV     1   --> B_1  D_3  S_3  
     e( 15 - 15) =     34.99314  eV     1   --> A_2  D_2  S_2  
     e( 16 - 16) =     35.77227  eV     1   --> B_2  D_4  S_4  
     e( 17 - 17) =     36.98786  eV     1   --> A_2  D_2  S_2  
     e( 18 - 18) =     37.30341  eV     1   --> B_2  D_4  S_4  
     e( 19 - 19) =     42.47204  eV     1   --> A_1  D_1  S_1  
     e( 20 - 20) =     46.90860  eV     1   --> B_1  D_3  S_3  

 **************************************************************************

 **************************************************************************

                    xk=(   0.02500,   0.04330,   0.46617  )

     Band symmetry, C_2v (mm2)  point group:

     e(  1 -  1) =    -37.75029  eV     1   --> A_1  D_1  S_1  
     e(  2 -  2) =    -12.62341  eV     1   --> B_2  D_4  S_4  
     e(  3 -  3) =    -11.46038  eV     1   --> A_1  D_1  S_1  
     e(  4 -  4) =    -11.44350  eV     1   --> B_1  D_3  S_3  
     e(  5 -  5) =     11.01769  eV     1   --> B_2  D_4  S_4  
     e(  6 -  6) =     13.76420  eV     1   --> A_1  D_1  S_1  
     e(  7 -  7) =     20.43096  eV     1   --> A_2  D_2  S_2  
     e(  8 -  8) =     20.45372  eV     1   --> B_2  D_4  S_4  
     e(  9 -  9) =     21.33119  eV     1   --> B_1  D_3  S_3  
     e( 10 - 10) =     21.52789  eV     1   --> A_1  D_1  S_1  
     e( 11 - 11) =     22.22150  eV     1   --> A_2  D_2  S_2  
     e( 12 - 12) =     22.26600  eV     1   --> B_2  D_4  S_4  
     e( 13 - 13) =     23.80854  eV     1   --> A_1  D_1  S_1  
     e( 14 - 14) =     29.05262  eV     1   --> B_1  D_3  S_3  
     e( 15 - 15) =     34.94989  eV     1   --> A_2  D_2  S_2  
     e( 16 - 16) =     35.86658  eV     1   --> B_2  D_4  S_4  
     e( 17 - 17) =     36.97931  eV     1   --> A_2  D_2  S_2  
     e( 18 - 18) =     37.16963  eV     1   --> B_2  D_4  S_4  
     e( 19 - 19) =     42.56492  eV     1   --> A_1  D_1  S_1  
     e( 20 - 20) =     47.29486  eV     1   --> B_1  D_3  S_3  

 **************************************************************************

 **************************************************************************

                    xk=(   0.01667,   0.02887,   0.46617  )

     Band symmetry, C_2v (mm2)  point group:

     e(  1 -  1) =    -37.75188  eV     1   --> A_1  D_1  S_1  
     e(  2 -  2) =    -12.62608  eV     1   --> B_2  D_4  S_4  
     e(  3 -  3) =    -11.44845  eV     1   --> A_1  D_1  S_1  
     e(  4 -  4) =    -11.44089  eV     1   --> B_1  D_3  S_3  
     e(  5 -  5) =     11.02006  eV     1   --> B_2  D_4  S_4  
     e(  6 -  6) =     13.72501  eV     1   --> A_1  D_1  S_1  
     e(  7 -  7) =     20.69260  eV     1   --> A_2  D_2  S_2  
     e(  8 -  8) =     20.70058  eV     1   --> B_2  D_4  S_4  
     e(  9 -  9) =     21.40470  eV     1   --> B_1  D_3  S_3  
     e( 10 - 10) =     21.49320  eV     1   --> A_1  D_1  S_1  
     e( 11 - 11) =     21.97016  eV     1   --> A_2  D_2  S_2  
     e( 12 - 12) =     21.99190  eV     1   --> B_2  D_4  S_4  
     e( 13 - 13) =     23.79415  eV     1   --> A_1  D_1  S_1  
     e( 14 - 14) =     28.94730  eV     1   --> B_1  D_3  S_3  
     e( 15 - 15) =     34.91815  eV     1   --> A_2  D_2  S_2  
     e( 16 - 16) =     35.94418  eV     1   --> B_2  D_4  S_4  
     e( 17 - 17) =     36.97508  eV     1   --> A_2  D_2  S_2  
     e( 18 - 18) =     37.06585  eV     1   --> B_2  D_4  S_4  
     e( 19 - 19) =     42.63315  eV     1   --> A_1  D_1  S_1  
     e( 20 - 20) =     47.65380  eV     1   --> B_1  D_3  S_3  

 **************************************************************************

 **************************************************************************

                    xk=(   0.00833,   0.01443,   0.46617  )

     Band symmetry, C_2v (mm2)  point group:

     e(  1 -  1) =    -37.75283  eV     1   --> A_1  D_1  S_1  
     e(  2 -  2) =    -12.62770  eV     1   --> B_2  D_4  S_4  
     e(  3 -  3) =    -11.44123  eV     1   --> A_1  D_1  S_1  
     e(  4 -  4) =    -11.43933  eV     1   --> B_1  D_3  S_3  
     e(  5 -  5) =     11.02132  eV     1   --> B_2  D_4  S_4  
     e(  6 -  6) =     13.70138  eV     1   --> A_1  D_1  S_1  
     e(  7 -  7) =     20.92063  eV     1   --> A_2  D_2  S_2  
     e(  8 -  8) =     20.92163  eV     1   --> B_2  D_4  S_4  
     e(  9 -  9) =     21.45008  eV     1   --> B_1  D_3  S_3  
     e( 10 - 10) =     21.47238  eV     1   --> A_1  D_1  S_1  
     e( 11 - 11) =     21.74761  eV     1   --> A_2  D_2  S_2  
     e( 12 - 12) =     21.75405  eV     1   --> B_2  D_4  S_4  
     e( 13 - 13) =     23.78547  eV     1   --> A_1  D_1  S_1  
     e( 14 - 14) =     28.88218  eV     1   --> B_1  D_3  S_3  
     e( 15 - 15) =     34.89792  eV     1   --> A_2  D_2  S_2  
     e( 16 - 16) =     35.99658  eV     1   --> B_2  D_4  S_4  
     e( 17 - 17) =     36.97309  eV     1   --> A_2  D_2  S_2  
     e( 18 - 18) =     36.99688  eV     1   --> B_2  D_4  S_4  
     e( 19 - 19) =     42.67296  eV     1   --> A_1  D_1  S_1  
     e( 20 - 20) =     47.93915  eV     1   --> B_1  D_3  S_3  

 **************************************************************************

 **************************************************************************

                    xk=(   0.00000,   0.00000,   0.46617  )

     point group D_6h(6/mmm)
     there are 12 classes
     the character table:

       E     2C6   2C3   C2    3C2'  3C2'' i     2S3   2S6   s_h   3s_d  3s_v 
A_1g   1.00  1.00  1.00  1.00  1.00  1.00  1.00  1.00  1.00  1.00  1.00  1.00
A_2g   1.00  1.00  1.00  1.00 -1.00 -1.00  1.00  1.00  1.00  1.00 -1.00 -1.00
B_1g   1.00 -1.00  1.00 -1.00  1.00 -1.00  1.00 -1.00  1.00 -1.00  1.00 -1.00
B_2g   1.00 -1.00  1.00 -1.00 -1.00  1.00  1.00 -1.00  1.00 -1.00 -1.00  1.00
E_1g   2.00  1.00 -1.00 -2.00  0.00  0.00  2.00  1.00 -1.00 -2.00  0.00  0.00
E_2g   2.00 -1.00 -1.00  2.00  0.00  0.00  2.00 -1.00 -1.00  2.00  0.00  0.00
A_1u   1.00  1.00  1.00  1.00  1.00  1.00 -1.00 -1.00 -1.00 -1.00 -1.00 -1.00
A_2u   1.00  1.00  1.00  1.00 -1.00 -1.00 -1.00 -1.00 -1.00 -1.00  1.00  1.00
B_1u   1.00 -1.00  1.00 -1.00  1.00 -1.00 -1.00  1.00 -1.00  1.00 -1.00  1.00
B_2u   1.00 -1.00  1.00 -1.00 -1.00  1.00 -1.00  1.00 -1.00  1.00  1.00 -1.00
E_1u   2.00  1.00 -1.00 -2.00  0.00  0.00 -2.00 -1.00  1.00  2.00  0.00  0.00
E_2u   2.00 -1.00 -1.00  2.00  0.00  0.00 -2.00  1.00  1.00 -2.00  0.00  0.00

     the symmetry operations in each class and the name of the first element:

     E        1
                                                                 
     2C6      5    6
                                                                 
     2C3      7    8
                                                                 
     C2       2
                                                                 
     3C2'     4   12   11
                                                                 
     3C2''    3    9   10
                                                                 
     i       13
                                                                 
     2S3     17   18
                                                                 
     2S6     19   20
                                                                 
     s_h     14
                                                                 
     3s_d    16   24   23
                                                                 
     3s_v    15   21   22
                                                                 

     Band symmetry, D_6h(6/mmm) point group:

     e(  1 -  1) =    -37.75316  eV     1   --> A_1g           
     e(  2 -  2) =    -12.62824  eV     1   --> A_2u           
     e(  3 -  4) =    -11.43881  eV     2   --> E_1u           
     e(  5 -  5) =     11.02175  eV     1   --> A_2u           
     e(  6 -  6) =     13.69348  eV     1   --> A_1g           
     e(  7 -  8) =     21.03206  eV     2   --> E_1g           
     e(  9 - 10) =     21.46544  eV     2   --> E_2g           
     e( 11 - 12) =     21.63802  eV     2   --> E_2u           
     e( 13 - 13) =     23.78257  eV     1   --> A_1g           
     e( 14 - 14) =     28.86022  eV     1   --> B_2u           
     e( 15 - 15) =     34.89108  eV     1   --> B_1g           
     e( 16 - 16) =     36.01542  eV     1   --> A_2u           
     e( 17 - 18) =     36.97253  eV     2   --> E_1g           
     e( 19 - 19) =     42.68623  eV     1   --> A_1g           
     e( 20 - 20) =     48.05757  eV     1   -->   ?

 **************************************************************************
 
     BANDS        :      5.94s CPU      6.36s WALL

 
   This run was terminated on:   3:17:47  28Apr2022            

=------------------------------------------------------------------------------=
   JOB DONE.
=------------------------------------------------------------------------------=
