
     Program PWSCF v.7.0 starts on 27Apr2022 at 21:11:46 

     This program is part of the open-source Quantum ESPRESSO suite
     for quantum simulation of materials; please cite
         "P. Giannozzi et al., J. Phys.:Condens. Matter 21 395502 (2009);
         "P. Giannozzi et al., J. Phys.:Condens. Matter 29 465901 (2017);
         "P. Giannozzi et al., J. Chem. Phys. 152 154105 (2020);
          URL http://www.quantum-espresso.org", 
     in publications or presentations arising from this work. More details at
     http://www.quantum-espresso.org/quote

     Parallel version (MPI), running on     8 processors

     MPI processes distributed on     1 nodes
     R & G space division:  proc/nbgrp/npool/nimage =       8
     1325 MiB available memory on the printing compute node when the environment starts
 
     Reading input from mob2_scf.in

     Current dimensions of program PWSCF are:
     Max number of different atomic species (ntypx) = 10
     Max number of k-points (npk) =  40000
     Max angular momentum in pseudopotentials (lmaxx) =  4

     Subspace diagonalization in iterative solution of the eigenvalue problem:
     a serial algorithm will be used

 
     Parallelization info
     --------------------
     sticks:   dense  smooth     PW     G-vecs:    dense   smooth      PW
     Min          36      36     11                  525      525      97
     Max          38      38     12                  526      526     100
     Sum         295     295     91                 4205     4205     787
 
     Using Slab Decomposition
 


     bravais-lattice index     =            4
     lattice parameter (alat)  =       5.3780  a.u.
     unit-cell volume          =     144.4842 (a.u.)^3
     number of atoms/cell      =            3
     number of atomic types    =            2
     number of electrons       =        20.00
     number of Kohn-Sham states=           20
     kinetic-energy cutoff     =      36.0000  Ry
     charge density cutoff     =     144.0000  Ry
     scf convergence threshold =      1.0E-08
     mixing beta               =       0.7000
     number of iterations used =            8  plain     mixing
     Exchange-correlation= PBE
                           (   1   4   3   4   0   0   0)

     celldm(1)=   5.377990  celldm(2)=   0.000000  celldm(3)=   1.072580
     celldm(4)=   0.000000  celldm(5)=   0.000000  celldm(6)=   0.000000

     crystal axes: (cart. coord. in units of alat)
               a(1) = (   1.000000   0.000000   0.000000 )  
               a(2) = (  -0.500000   0.866025   0.000000 )  
               a(3) = (   0.000000   0.000000   1.072580 )  

     reciprocal axes: (cart. coord. in units 2 pi/alat)
               b(1) = (  1.000000  0.577350  0.000000 )  
               b(2) = (  0.000000  1.154701  0.000000 )  
               b(3) = (  0.000000  0.000000  0.932331 )  


     PseudoPot. # 1 for Mo read from file:
     /home/marcocarmonaga/Apps/qe-7.0/pseudo/Mo_ONCV_PBE-1.2.upf
     MD5 check sum: 2665c9f4159700498d9a5f7573bd8e9f
     Pseudo is Norm-conserving, Zval = 14.0
     Generated using ONCVPSP code by D. R. Hamann
     Using radial grid of  602 points,  6 beta functions with: 
                l(1) =   0
                l(2) =   0
                l(3) =   1
                l(4) =   1
                l(5) =   2
                l(6) =   2

     PseudoPot. # 2 for B  read from file:
     /home/marcocarmonaga/Apps/qe-7.0/pseudo/B_ONCV_PBE-1.2.upf
     MD5 check sum: eb3cbeacc2d324d57d903df00f564d27
     Pseudo is Norm-conserving, Zval =  3.0
     Generated using ONCVPSP code by D. R. Hamann
     Using radial grid of  602 points,  4 beta functions with: 
                l(1) =   0
                l(2) =   0
                l(3) =   1
                l(4) =   1

     atomic species   valence    mass     pseudopotential
        Mo            14.00    95.95000     Mo( 1.00)
        B              3.00    10.81000     B ( 1.00)

     24 Sym. Ops., with inversion, found



   Cartesian axes

     site n.     atom                  positions (alat units)
         1           Mo  tau(   1) = (   0.0000000   0.0000000   0.0000000  )
         2           B   tau(   2) = (   0.5000000   0.2886751   0.5362900  )
         3           B   tau(   3) = (   0.0000000   0.5773503   0.5362900  )

     number of k points=   333  Gaussian smearing, width (Ry)=  0.0150

     Number of k-points >= 100: set verbosity='high' to print them.

     Dense  grid:     4205 G-vectors     FFT dimensions: (  24,  24,  24)

     Estimated max dynamical RAM per process >       9.10 MB

     Estimated total dynamical RAM >      72.84 MB

     Initial potential from superposition of free atoms

     starting charge      19.8751, renormalised to      20.0000
     Starting wfcs are random

     total cpu time spent up to now is        1.4 secs

     Self-consistent Calculation

     iteration #  1     ecut=    36.00 Ry     beta= 0.70
     Davidson diagonalization with overlap
     ethr =  1.00E-02,  avg # of iterations =  7.6

     total cpu time spent up to now is        8.2 secs

     total energy              =    -148.16654243 Ry
     estimated scf accuracy    <       0.58977510 Ry

     iteration #  2     ecut=    36.00 Ry     beta= 0.70
     Davidson diagonalization with overlap
     ethr =  2.95E-03,  avg # of iterations =  2.3

     total cpu time spent up to now is       11.2 secs

     total energy              =    -148.23841676 Ry
     estimated scf accuracy    <       1.15996538 Ry

     iteration #  3     ecut=    36.00 Ry     beta= 0.70
     Davidson diagonalization with overlap
     ethr =  2.95E-03,  avg # of iterations =  1.5

     total cpu time spent up to now is       13.7 secs

     total energy              =    -148.47310428 Ry
     estimated scf accuracy    <       0.00344665 Ry

     iteration #  4     ecut=    36.00 Ry     beta= 0.70
     Davidson diagonalization with overlap
     ethr =  1.72E-05,  avg # of iterations =  4.9

     total cpu time spent up to now is       17.5 secs

     total energy              =    -148.47406982 Ry
     estimated scf accuracy    <       0.00011918 Ry

     iteration #  5     ecut=    36.00 Ry     beta= 0.70
     Davidson diagonalization with overlap
     ethr =  5.96E-07,  avg # of iterations =  2.8

     total cpu time spent up to now is       20.3 secs

     total energy              =    -148.47409354 Ry
     estimated scf accuracy    <       0.00000397 Ry

     iteration #  6     ecut=    36.00 Ry     beta= 0.70
     Davidson diagonalization with overlap
     ethr =  1.98E-08,  avg # of iterations =  1.8

     total cpu time spent up to now is       22.6 secs

     total energy              =    -148.47409408 Ry
     estimated scf accuracy    <       0.00000017 Ry

     iteration #  7     ecut=    36.00 Ry     beta= 0.70
     Davidson diagonalization with overlap
     ethr =  8.61E-10,  avg # of iterations =  2.0

     total cpu time spent up to now is       25.3 secs

     total energy              =    -148.47409410 Ry
     estimated scf accuracy    <       0.00000002 Ry

     iteration #  8     ecut=    36.00 Ry     beta= 0.70
     Davidson diagonalization with overlap
     ethr =  7.74E-11,  avg # of iterations =  2.1

     total cpu time spent up to now is       27.8 secs

     End of self-consistent calculation

     Number of k-points >= 100: set verbosity='high' to print the bands.

     the Fermi energy is    24.2319 ev

!    total energy              =    -148.47409410 Ry
     estimated scf accuracy    <          1.4E-09 Ry
     smearing contrib. (-TS)   =      -0.00175655 Ry
     internal energy E=F+TS    =    -148.47233755 Ry

     The total energy is F=E-TS. E is the sum of the following terms:
     one-electron contribution =      -5.65568603 Ry
     hartree contribution      =      18.52553524 Ry
     xc contribution           =     -20.78706139 Ry
     ewald contribution        =    -140.55512537 Ry

     convergence has been achieved in   8 iterations

     Writing all to output data dir ./tmp/mob2.save/
 
     init_run     :      1.07s CPU      1.36s WALL (       1 calls)
     electrons    :     24.66s CPU     26.41s WALL (       1 calls)

     Called by init_run:
     wfcinit      :      1.03s CPU      1.27s WALL (       1 calls)
     potinit      :      0.02s CPU      0.02s WALL (       1 calls)
     hinit0       :      0.01s CPU      0.06s WALL (       1 calls)

     Called by electrons:
     c_bands      :     21.87s CPU     23.42s WALL (       8 calls)
     sum_band     :      2.78s CPU      2.97s WALL (       8 calls)
     v_of_rho     :      0.02s CPU      0.03s WALL (       9 calls)
     mix_rho      :      0.00s CPU      0.00s WALL (       8 calls)

     Called by c_bands:
     init_us_2    :      0.27s CPU      0.29s WALL (    5661 calls)
     init_us_2:cp :      0.25s CPU      0.27s WALL (    5661 calls)
     cegterg      :     20.98s CPU     22.48s WALL (    2664 calls)

     Called by *egterg:
     cdiaghg      :      5.46s CPU      5.76s WALL (   11007 calls)
     h_psi        :     14.57s CPU     15.83s WALL (   11340 calls)
     g_psi        :      0.05s CPU      0.05s WALL (    8343 calls)

     Called by h_psi:
     h_psi:calbec :      0.47s CPU      0.50s WALL (   11340 calls)
     vloc_psi     :     13.61s CPU     14.82s WALL (   11340 calls)
     add_vuspsi   :      0.37s CPU      0.40s WALL (   11340 calls)

     General routines
     calbec       :      0.44s CPU      0.47s WALL (   11340 calls)
     fft          :      0.01s CPU      0.07s WALL (      89 calls)
     ffts         :      0.00s CPU      0.00s WALL (       8 calls)
     fftw         :     14.69s CPU     16.00s WALL (  361750 calls)
 
     Parallel routines
 
     PWSCF        :     26.03s CPU     28.41s WALL

 
   This run was terminated on:  21:12:15  27Apr2022            

=------------------------------------------------------------------------------=
   JOB DONE.
=------------------------------------------------------------------------------=
