
     Program PHONON v.7.0 starts on 15Jun2022 at  4:34:37 

     This program is part of the open-source Quantum ESPRESSO suite
     for quantum simulation of materials; please cite
         "P. Giannozzi et al., J. Phys.:Condens. Matter 21 395502 (2009);
         "P. Giannozzi et al., J. Phys.:Condens. Matter 29 465901 (2017);
         "P. Giannozzi et al., J. Chem. Phys. 152 154105 (2020);
          URL http://www.quantum-espresso.org", 
     in publications or presentations arising from this work. More details at
     http://www.quantum-espresso.org/quote

     Parallel version (MPI), running on     8 processors

     MPI processes distributed on     1 nodes
     R & G space division:  proc/nbgrp/npool/nimage =       8
     5460 MiB available memory on the printing compute node when the environment starts
 
     Reading input from mob2_fonon_01.in

     Reading xml data from directory:

     ./tmp/mob2.save/

     IMPORTANT: XC functional enforced from input :
     Exchange-correlation= PBE
                           (   1   4   3   4   0   0   0)
     Any further DFT definition will be discarded
     Please, verify this is what you really want

 
     Parallelization info
     --------------------
     sticks:   dense  smooth     PW     G-vecs:    dense   smooth      PW
     Min         199      56     18                 6901     1046     192
     Max         200      57     19                 6904     1049     195
     Sum        1597     451    151                55227     8373    1545
 
     Using Slab Decomposition
 
     Reading collected, re-writing distributed wavefunctions


     Dynamical matrices for ( 3, 3, 3)  uniform grid of q-points
     (   6 q-points):
       N         xq(1)         xq(2)         xq(3) 
       1   0.000000000   0.000000000   0.000000000
       2   0.000000000   0.000000000   0.311376641
       3   0.000000000   0.384900179   0.000000000
       4   0.000000000   0.384900179   0.311376641
       5   0.333333333   0.577350269   0.000000000
       6   0.333333333   0.577350269   0.311376641

     Calculation of q =    0.0000000   0.0000000   0.0000000

     Phonon calc for qp01                                                       

     bravais-lattice index     =            4
     lattice parameter (alat)  =       5.8733  a.u.
     unit-cell volume          =     187.8355 (a.u.)^3
     number of atoms/cell      =            3
     number of atomic types    =            2
     kinetic-energy cut-off    =      48.0000  Ry
     charge density cut-off    =     672.0000  Ry
     convergence threshold     =      1.0E-14
     beta                      =       0.7000
     number of iterations used =            4
     Exchange-correlation= PBE
                           (   1   4   3   4   0   0   0)


     celldm(1)=    5.87334  celldm(2)=    0.00000  celldm(3)=    1.07051
     celldm(4)=    0.00000  celldm(5)=    0.00000  celldm(6)=    0.00000

     crystal axes: (cart. coord. in units of alat)
               a(1) = (  1.0000  0.0000  0.0000 )  
               a(2) = ( -0.5000  0.8660  0.0000 )  
               a(3) = (  0.0000  0.0000  1.0705 )  

     reciprocal axes: (cart. coord. in units 2 pi/alat)
               b(1) = (  1.0000  0.5774  0.0000 )  
               b(2) = (  0.0000  1.1547  0.0000 )  
               b(3) = (  0.0000  0.0000  0.9341 )  


     Atoms inside the unit cell: 

     Cartesian axes

     site n.  atom      mass           positions (alat units)
        1     Mo  92.9060   tau(    1) = (    0.00000    0.00000    0.00000  )
        2     B   10.8100   tau(    2) = (    0.50000    0.28868    0.53526  )
        3     B   10.8100   tau(    3) = (    0.00000    0.57735    0.53526  )

     Computing dynamical matrix for 
                    q = (   0.0000000   0.0000000   0.0000000 )
 
     25 Sym.Ops. (with q -> -q+G )


     G cutoff =  587.1906  (   6903 G-vectors)     FFT grid: ( 50, 50, 54)
     G cutoff =  167.7687  (   1049 G-vectors)  smooth grid: ( 25, 25, 27)

     number of k points=   732  Gaussian smearing, width (Ry)=  0.0150

     PseudoPot. # 1 for Xx read from file:
     /home/marcocarmonaga/Apps/qe-7.0/pseudo/Nb1.00Mo0.00.upf
     MD5 check sum: e4b562b21cfca1bf7e2ab47e57cae993
     Pseudo is Norm-conserving, Zval = 13.0
     Generated using virtual.x code
     Using radial grid of  602 points, 12 beta functions with: 
                l(1) =   0
                l(2) =   0
                l(3) =   1
                l(4) =   1
                l(5) =   2
                l(6) =   2
                l(7) =   0
                l(8) =   0
                l(9) =   1
               l(10) =   1
               l(11) =   2
               l(12) =   2

     PseudoPot. # 2 for B  read from file:
     /home/marcocarmonaga/Apps/qe-7.0/pseudo/B_ONCV_PBE-1.2.upf
     MD5 check sum: eb3cbeacc2d324d57d903df00f564d27
     Pseudo is Norm-conserving, Zval =  3.0
     Generated using ONCVPSP code by D. R. Hamann
     Using radial grid of  602 points,  4 beta functions with: 
                l(1) =   0
                l(2) =   0
                l(3) =   1
                l(4) =   1

     Mode symmetry, D_6h(6/mmm) point group:


     Atomic displacements:
     There are    6 irreducible representations

     Representation     1      1 modes -  To be done

     Representation     2      2 modes -  To be done

     Representation     3      1 modes -  To be done

     Representation     4      1 modes -  To be done

     Representation     5      2 modes -  To be done

     Representation     6      2 modes -  To be done



     Alpha used in Ewald sum =   2.8000
     PHONON       :      4.77s CPU      4.93s WALL



     Representation #   1 mode #   1

     Self-consistent Calculation
 
     Pert. #  1: Fermi energy shift (Ry) =     5.7824E-19     0.0000E+00

      iter #   1 total cpu time :    17.0 secs   av.it.:   4.8
      thresh= 1.000E-02 alpha_mix =  0.700 |ddv_scf|^2 =  4.330E-08
 
     Pert. #  1: Fermi energy shift (Ry) =    -5.7824E-19     0.0000E+00

      iter #   2 total cpu time :    33.8 secs   av.it.:  11.2
      thresh= 2.081E-05 alpha_mix =  0.700 |ddv_scf|^2 =  2.061E-09
 
     Pert. #  1: Fermi energy shift (Ry) =    -5.7824E-19     0.0000E+00

      iter #   3 total cpu time :    48.7 secs   av.it.:   9.6
      thresh= 4.539E-06 alpha_mix =  0.700 |ddv_scf|^2 =  9.068E-11
 
     Pert. #  1: Fermi energy shift (Ry) =    -5.7824E-19     0.0000E+00

      iter #   4 total cpu time :    62.5 secs   av.it.:   8.6
      thresh= 9.522E-07 alpha_mix =  0.700 |ddv_scf|^2 =  6.904E-15

     End of self-consistent calculation

     Convergence has been achieved 


     Representation #   2 modes #   2   3

     Self-consistent Calculation
 
     Pert. #  1: Fermi energy shift (Ry) =     0.0000E+00    -3.0612E-41
     Pert. #  2: Fermi energy shift (Ry) =    -1.0119E-18    -4.9744E-41

      iter #   1 total cpu time :    88.0 secs   av.it.:   5.8
      thresh= 1.000E-02 alpha_mix =  0.700 |ddv_scf|^2 =  7.431E-08
 
     Pert. #  1: Fermi energy shift (Ry) =    -1.4456E-19     2.8699E-42
     Pert. #  2: Fermi energy shift (Ry) =    -5.0596E-19    -9.5662E-42

      iter #   2 total cpu time :   125.0 secs   av.it.:  12.8
      thresh= 2.726E-05 alpha_mix =  0.700 |ddv_scf|^2 =  2.043E-09
 
     Pert. #  1: Fermi energy shift (Ry) =     5.7824E-19     4.7831E-42
     Pert. #  2: Fermi energy shift (Ry) =     6.5052E-19     3.8265E-42

      iter #   3 total cpu time :   162.6 secs   av.it.:  12.7
      thresh= 4.520E-06 alpha_mix =  0.700 |ddv_scf|^2 =  7.913E-11
 
     Pert. #  1: Fermi energy shift (Ry) =     1.0119E-18     4.7831E-42
     Pert. #  2: Fermi energy shift (Ry) =    -1.3733E-18     3.8265E-42

      iter #   4 total cpu time :   196.2 secs   av.it.:  11.3
      thresh= 8.895E-07 alpha_mix =  0.700 |ddv_scf|^2 =  6.410E-13
 
     Pert. #  1: Fermi energy shift (Ry) =     5.7824E-19     4.7831E-42
     Pert. #  2: Fermi energy shift (Ry) =    -1.0842E-18     3.8265E-42

      iter #   5 total cpu time :   231.8 secs   av.it.:  12.1
      thresh= 8.007E-08 alpha_mix =  0.700 |ddv_scf|^2 =  4.740E-16

     End of self-consistent calculation

     Convergence has been achieved 


     Representation #   3 mode #   4

     Self-consistent Calculation
 
     Pert. #  1: Fermi energy shift (Ry) =    -2.7573E-25     0.0000E+00

      iter #   1 total cpu time :   249.1 secs   av.it.:   8.0
      thresh= 1.000E-02 alpha_mix =  0.700 |ddv_scf|^2 =  1.738E-05
 
     Pert. #  1: Fermi energy shift (Ry) =     4.1359E-25     0.0000E+00

      iter #   2 total cpu time :   266.6 secs   av.it.:  11.8
      thresh= 4.169E-04 alpha_mix =  0.700 |ddv_scf|^2 =  5.586E-06
 
     Pert. #  1: Fermi energy shift (Ry) =     0.0000E+00     0.0000E+00

      iter #   3 total cpu time :   283.4 secs   av.it.:  11.3
      thresh= 2.363E-04 alpha_mix =  0.700 |ddv_scf|^2 =  1.158E-09
 
     Pert. #  1: Fermi energy shift (Ry) =     0.0000E+00     0.0000E+00

      iter #   4 total cpu time :   301.1 secs   av.it.:  12.0
      thresh= 3.404E-06 alpha_mix =  0.700 |ddv_scf|^2 =  1.497E-10
 
     Pert. #  1: Fermi energy shift (Ry) =     0.0000E+00     0.0000E+00

      iter #   5 total cpu time :   318.0 secs   av.it.:  11.3
      thresh= 1.224E-06 alpha_mix =  0.700 |ddv_scf|^2 =  6.234E-13
 
     Pert. #  1: Fermi energy shift (Ry) =     2.7573E-25     0.0000E+00

      iter #   6 total cpu time :   335.2 secs   av.it.:  11.6
      thresh= 7.895E-08 alpha_mix =  0.700 |ddv_scf|^2 =  2.068E-15

     End of self-consistent calculation

     Convergence has been achieved 


     Representation #   4 mode #   5

     Self-consistent Calculation
 
     Pert. #  1: Fermi energy shift (Ry) =     1.0340E-25     0.0000E+00

      iter #   1 total cpu time :   349.3 secs   av.it.:   6.2
      thresh= 1.000E-02 alpha_mix =  0.700 |ddv_scf|^2 =  1.131E-06
 
     Pert. #  1: Fermi energy shift (Ry) =    -1.0340E-25    -9.7958E-40

      iter #   2 total cpu time :   366.7 secs   av.it.:  11.7
      thresh= 1.063E-04 alpha_mix =  0.700 |ddv_scf|^2 =  3.029E-07
 
     Pert. #  1: Fermi energy shift (Ry) =    -1.0340E-25     0.0000E+00

      iter #   3 total cpu time :   383.5 secs   av.it.:  11.3
      thresh= 5.503E-05 alpha_mix =  0.700 |ddv_scf|^2 =  9.456E-10
 
     Pert. #  1: Fermi energy shift (Ry) =     3.4466E-26     0.0000E+00

      iter #   4 total cpu time :   400.2 secs   av.it.:  11.1
      thresh= 3.075E-06 alpha_mix =  0.700 |ddv_scf|^2 =  4.458E-11
 
     Pert. #  1: Fermi energy shift (Ry) =    -3.4466E-26     4.8979E-40

      iter #   5 total cpu time :   416.3 secs   av.it.:  10.6
      thresh= 6.677E-07 alpha_mix =  0.700 |ddv_scf|^2 =  5.738E-15

     End of self-consistent calculation

     Convergence has been achieved 


     Representation #   5 modes #   6   7

     Self-consistent Calculation
 
     Pert. #  1: Fermi energy shift (Ry) =     0.0000E+00    -6.2693E-38
     Pert. #  2: Fermi energy shift (Ry) =     6.8932E-25     9.4040E-38

      iter #   1 total cpu time :   440.5 secs   av.it.:   5.3
      thresh= 1.000E-02 alpha_mix =  0.700 |ddv_scf|^2 =  2.463E-08
 
     Pert. #  1: Fermi energy shift (Ry) =    -2.7573E-25    -4.8979E-40
     Pert. #  2: Fermi energy shift (Ry) =    -1.3786E-25    -7.3468E-40

      iter #   2 total cpu time :   477.9 secs   av.it.:  12.8
      thresh= 1.569E-05 alpha_mix =  0.700 |ddv_scf|^2 =  1.355E-09
 
     Pert. #  1: Fermi energy shift (Ry) =     0.0000E+00     4.8979E-40
     Pert. #  2: Fermi energy shift (Ry) =     1.3786E-25     4.8979E-40

      iter #   3 total cpu time :   514.7 secs   av.it.:  12.6
      thresh= 3.681E-06 alpha_mix =  0.700 |ddv_scf|^2 =  1.022E-10
 
     Pert. #  1: Fermi energy shift (Ry) =     2.7573E-25    -4.8979E-40
     Pert. #  2: Fermi energy shift (Ry) =     2.7573E-25    -4.8979E-40

      iter #   4 total cpu time :   550.1 secs   av.it.:  12.2
      thresh= 1.011E-06 alpha_mix =  0.700 |ddv_scf|^2 =  2.285E-12
 
     Pert. #  1: Fermi energy shift (Ry) =     2.7573E-25    -4.8979E-40
     Pert. #  2: Fermi energy shift (Ry) =    -1.9301E-24    -4.8979E-40

      iter #   5 total cpu time :   586.0 secs   av.it.:  12.3
      thresh= 1.512E-07 alpha_mix =  0.700 |ddv_scf|^2 =  6.022E-16

     End of self-consistent calculation

     Convergence has been achieved 


     Representation #   6 modes #   8   9

     Self-consistent Calculation
 
     Pert. #  1: Fermi energy shift (Ry) =     5.5145E-25    -3.1347E-38
     Pert. #  2: Fermi energy shift (Ry) =     0.0000E+00     6.2693E-38

      iter #   1 total cpu time :   617.9 secs   av.it.:   7.9
      thresh= 1.000E-02 alpha_mix =  0.700 |ddv_scf|^2 =  1.728E-06
 
     Pert. #  1: Fermi energy shift (Ry) =    -6.8932E-26     1.2245E-39
     Pert. #  2: Fermi energy shift (Ry) =     1.8956E-25    -8.5713E-40

      iter #   2 total cpu time :   655.0 secs   av.it.:  12.8
      thresh= 1.314E-04 alpha_mix =  0.700 |ddv_scf|^2 =  1.575E-07
 
     Pert. #  1: Fermi energy shift (Ry) =    -6.8932E-26    -1.7143E-39
     Pert. #  2: Fermi energy shift (Ry) =    -1.7233E-25     0.0000E+00

      iter #   3 total cpu time :   691.7 secs   av.it.:  12.7
      thresh= 3.968E-05 alpha_mix =  0.700 |ddv_scf|^2 =  2.589E-10
 
     Pert. #  1: Fermi energy shift (Ry) =     0.0000E+00    -1.2245E-39
     Pert. #  2: Fermi energy shift (Ry) =    -1.3786E-25     0.0000E+00

      iter #   4 total cpu time :   728.6 secs   av.it.:  12.7
      thresh= 1.609E-06 alpha_mix =  0.700 |ddv_scf|^2 =  3.607E-12
 
     Pert. #  1: Fermi energy shift (Ry) =    -6.8932E-26    -1.2245E-39
     Pert. #  2: Fermi energy shift (Ry) =     2.4126E-25     0.0000E+00

      iter #   5 total cpu time :   764.1 secs   av.it.:  12.1
      thresh= 1.899E-07 alpha_mix =  0.700 |ddv_scf|^2 =  5.987E-14
 
     Pert. #  1: Fermi energy shift (Ry) =    -6.8932E-26    -1.2245E-39
     Pert. #  2: Fermi energy shift (Ry) =     1.7233E-25     0.0000E+00

      iter #   6 total cpu time :   801.6 secs   av.it.:  12.7
      thresh= 2.447E-08 alpha_mix =  0.700 |ddv_scf|^2 =  1.166E-16

     End of self-consistent calculation

     Convergence has been achieved 
 
     Number of q in the star =    1
     List of q in the star:
          1   0.000000000   0.000000000   0.000000000

     Diagonalizing the dynamical matrix

     q = (    0.000000000   0.000000000   0.000000000 ) 

 **************************************************************************
     freq (    1) =       0.487006 [THz] =      16.244777 [cm-1]
     freq (    2) =       0.487006 [THz] =      16.244777 [cm-1]
     freq (    3) =       0.553315 [THz] =      18.456596 [cm-1]
     freq (    4) =      12.404685 [THz] =     413.775759 [cm-1]
     freq (    5) =      12.404685 [THz] =     413.775759 [cm-1]
     freq (    6) =      14.156304 [THz] =     472.203473 [cm-1]
     freq (    7) =      16.409273 [THz] =     547.354419 [cm-1]
     freq (    8) =      23.409162 [THz] =     780.845580 [cm-1]
     freq (    9) =      23.409162 [THz] =     780.845580 [cm-1]
 **************************************************************************

     Mode symmetry, D_6h(6/mmm) point group:

     freq (   1-   2) =         16.2  [cm-1]   --> E_1u            I  
     freq (   3-   3) =         18.5  [cm-1]   --> A_2u            I  
     freq (   4-   5) =        413.8  [cm-1]   --> E_1u            I  
     freq (   6-   6) =        472.2  [cm-1]   --> A_2u            I  
     freq (   7-   7) =        547.4  [cm-1]   --> B_1g               
     freq (   8-   9) =        780.8  [cm-1]   --> E_2g            R  
 
     PHONON       :  12m44.82s CPU  13m22.60s WALL

     INITIALIZATION: 
     phq_setup    :      0.03s CPU      0.03s WALL (       1 calls)
     phq_init     :      3.77s CPU      3.81s WALL (       1 calls)
 
     phq_init     :      3.77s CPU      3.81s WALL (       1 calls)
     init_vloc    :      0.02s CPU      0.02s WALL (       1 calls)
     init_us_1    :      0.01s CPU      0.01s WALL (       1 calls)
     init_us_2    :      4.40s CPU      4.58s WALL (   37332 calls)
 
     DYNAMICAL MATRIX:
     dynmat0      :      3.29s CPU      3.32s WALL (       1 calls)
     phqscf       :    760.05s CPU    797.64s WALL (       1 calls)
     dynmatrix    :      0.00s CPU      0.00s WALL (       1 calls)
 
     phqscf       :    760.05s CPU    797.64s WALL (       1 calls)
     solve_linter :    755.58s CPU    793.10s WALL (       6 calls)
     drhodv       :      4.47s CPU      4.54s WALL (       6 calls)
 
     dynmat0      :      3.29s CPU      3.32s WALL (       1 calls)
     dynmat_us    :      3.28s CPU      3.31s WALL (       1 calls)
     d2ionq       :      0.01s CPU      0.01s WALL (       1 calls)
 
     dynmat_us    :      3.28s CPU      3.31s WALL (       1 calls)
 
     phqscf       :    760.05s CPU    797.64s WALL (       1 calls)
     solve_linter :    755.58s CPU    793.10s WALL (       6 calls)
 
     solve_linter :    755.58s CPU    793.10s WALL (       6 calls)
     dvqpsi_us    :     25.78s CPU     26.62s WALL (    6588 calls)
     sth_kernel   :    712.39s CPU    748.74s WALL (      31 calls)
     apply_dpot_b :     36.10s CPU     38.21s WALL (   27816 calls)
     ortho        :      4.21s CPU      4.44s WALL (   34404 calls)
     cgsolve      :    620.36s CPU    651.27s WALL (   34404 calls)
     incdrhoscf   :     43.45s CPU     46.08s WALL (   34404 calls)
     dv_of_drho   :      0.74s CPU      0.78s WALL (      47 calls)
     mix_pot      :      0.14s CPU      0.14s WALL (      31 calls)
     ef_shift     :      0.05s CPU      0.06s WALL (      31 calls)
     ef_shift_wfc :      0.29s CPU      0.29s WALL (       6 calls)
     localdos     :      6.39s CPU      6.61s WALL (       6 calls)
     psymdvscf    :      9.05s CPU      9.08s WALL (      31 calls)
 
     dvqpsi_us    :     25.78s CPU     26.62s WALL (    6588 calls)
     dvqpsi_us_on :      8.89s CPU      9.14s WALL (    6588 calls)
 
     cgsolve      :    620.36s CPU    651.27s WALL (   34404 calls)
     ch_psi       :    600.54s CPU    630.34s WALL (  610160 calls)
 
     ch_psi       :    600.54s CPU    630.34s WALL (  610160 calls)
     h_psi        :    533.94s CPU    560.57s WALL (  610160 calls)
     last         :     56.61s CPU     59.41s WALL (  610160 calls)
 
     h_psi        :    533.94s CPU    560.57s WALL (  610160 calls)
     add_vuspsi   :     29.61s CPU     31.23s WALL (  610160 calls)
 
     incdrhoscf   :     43.45s CPU     46.08s WALL (   34404 calls)
 
 
      General routines
     calbec       :     63.34s CPU     66.36s WALL ( 1258384 calls)
     fft          :      0.46s CPU      0.50s WALL (     726 calls)
     ffts         :      4.13s CPU      4.27s WALL (   50411 calls)
     fftw         :    499.07s CPU    524.76s WALL ( 9320844 calls)
 
 
     PHONON       :  12m44.82s CPU  13m22.61s WALL

 
   This run was terminated on:   4:48: 0  15Jun2022            

=------------------------------------------------------------------------------=
   JOB DONE.
=------------------------------------------------------------------------------=
