
     Program PHONON v.7.0 starts on 15Jun2022 at  4:48: 0 

     This program is part of the open-source Quantum ESPRESSO suite
     for quantum simulation of materials; please cite
         "P. Giannozzi et al., J. Phys.:Condens. Matter 21 395502 (2009);
         "P. Giannozzi et al., J. Phys.:Condens. Matter 29 465901 (2017);
         "P. Giannozzi et al., J. Chem. Phys. 152 154105 (2020);
          URL http://www.quantum-espresso.org", 
     in publications or presentations arising from this work. More details at
     http://www.quantum-espresso.org/quote

     Parallel version (MPI), running on     8 processors

     MPI processes distributed on     1 nodes
     R & G space division:  proc/nbgrp/npool/nimage =       8
     5453 MiB available memory on the printing compute node when the environment starts
 
     Reading input from mob2_fonon_02.in

     Reading xml data from directory:

     ./tmp/mob2.save/

     IMPORTANT: XC functional enforced from input :
     Exchange-correlation= PBE
                           (   1   4   3   4   0   0   0)
     Any further DFT definition will be discarded
     Please, verify this is what you really want

 
     Parallelization info
     --------------------
     sticks:   dense  smooth     PW     G-vecs:    dense   smooth      PW
     Min         199      56     18                 6901     1046     192
     Max         200      57     19                 6904     1049     195
     Sum        1597     451    151                55227     8373    1545
 
     Using Slab Decomposition
 
     Reading collected, re-writing distributed wavefunctions


     Dynamical matrices for ( 3, 3, 3)  uniform grid of q-points
     (   6 q-points):
       N         xq(1)         xq(2)         xq(3) 
       1   0.000000000   0.000000000   0.000000000
       2   0.000000000   0.000000000   0.311376641
       3   0.000000000   0.384900179   0.000000000
       4   0.000000000   0.384900179   0.311376641
       5   0.333333333   0.577350269   0.000000000
       6   0.333333333   0.577350269   0.311376641

     Calculation of q =    0.0000000   0.0000000   0.3113766

     Subspace diagonalization in iterative solution of the eigenvalue problem:
     a serial algorithm will be used

 
     Parallelization info
     --------------------
     sticks:   dense  smooth     PW     G-vecs:    dense   smooth      PW
     Min         199      56     18                 6901     1046     200
     Max         200      57     19                 6904     1049     205
     Sum        1597     451    151                55227     8373    1631
 
     Using Slab Decomposition
 

     Title: 
     Phonon calc for qp02                                                       


     bravais-lattice index     =            4
     lattice parameter (alat)  =       5.8733  a.u.
     unit-cell volume          =     187.8355 (a.u.)^3
     number of atoms/cell      =            3
     number of atomic types    =            2
     number of electrons       =        19.00
     number of Kohn-Sham states=           20
     kinetic-energy cutoff     =      48.0000  Ry
     charge density cutoff     =     672.0000  Ry
     Exchange-correlation= PBE
                           (   1   4   3   4   0   0   0)

     celldm(1)=   5.873335  celldm(2)=   0.000000  celldm(3)=   1.070515
     celldm(4)=   0.000000  celldm(5)=   0.000000  celldm(6)=   0.000000

     crystal axes: (cart. coord. in units of alat)
               a(1) = (   1.000000   0.000000   0.000000 )  
               a(2) = (  -0.500000   0.866025   0.000000 )  
               a(3) = (   0.000000   0.000000   1.070515 )  

     reciprocal axes: (cart. coord. in units 2 pi/alat)
               b(1) = (  1.000000  0.577350  0.000000 )  
               b(2) = (  0.000000  1.154701  0.000000 )  
               b(3) = (  0.000000  0.000000  0.934130 )  


     PseudoPot. # 1 for Xx read from file:
     /home/marcocarmonaga/Apps/qe-7.0/pseudo/Nb1.00Mo0.00.upf
     MD5 check sum: e4b562b21cfca1bf7e2ab47e57cae993
     Pseudo is Norm-conserving, Zval = 13.0
     Generated using virtual.x code
     Using radial grid of  602 points, 12 beta functions with: 
                l(1) =   0
                l(2) =   0
                l(3) =   1
                l(4) =   1
                l(5) =   2
                l(6) =   2
                l(7) =   0
                l(8) =   0
                l(9) =   1
               l(10) =   1
               l(11) =   2
               l(12) =   2

     PseudoPot. # 2 for B  read from file:
     /home/marcocarmonaga/Apps/qe-7.0/pseudo/B_ONCV_PBE-1.2.upf
     MD5 check sum: eb3cbeacc2d324d57d903df00f564d27
     Pseudo is Norm-conserving, Zval =  3.0
     Generated using ONCVPSP code by D. R. Hamann
     Using radial grid of  602 points,  4 beta functions with: 
                l(1) =   0
                l(2) =   0
                l(3) =   1
                l(4) =   1

     atomic species   valence    mass     pseudopotential
        Mo            13.00    92.90600     Xx( 1.00)
        B              3.00    10.81000     B ( 1.00)

     24 Sym. Ops., with inversion, found



   Cartesian axes

     site n.     atom                  positions (alat units)
         1           Mo  tau(   1) = (   0.0000000   0.0000000   0.0000000  )
         2           B   tau(   2) = (   0.5000000   0.2886751   0.5352574  )
         3           B   tau(   3) = (   0.0000000   0.5773503   0.5352574  )

     number of k points=  2928  Gaussian smearing, width (Ry)=  0.0150

     Number of k-points >= 100: set verbosity='high' to print them.

     Dense  grid:    55227 G-vectors     FFT dimensions: (  50,  50,  54)

     Smooth grid:     8373 G-vectors     FFT dimensions: (  25,  25,  27)

     Estimated max dynamical RAM per process >     135.82 MB

     Estimated total dynamical RAM >       1.06 GB

     The potential is recalculated from file :
     ./tmp/_ph0/mob2.save/charge-density

     Starting wfcs are    0 atomic +   20 random wfcs

     Band Structure Calculation
     Davidson diagonalization with overlap

     ethr =  5.26E-11,  avg # of iterations = 23.1

     total cpu time spent up to now is      237.8 secs

     End of band structure calculation

     Number of k-points >= 100: set verbosity='high' to print the bands.

     the Fermi energy is    18.4748 ev

     Phonon calc for qp02                                                       

     bravais-lattice index     =            4
     lattice parameter (alat)  =       5.8733  a.u.
     unit-cell volume          =     187.8355 (a.u.)^3
     number of atoms/cell      =            3
     number of atomic types    =            2
     kinetic-energy cut-off    =      48.0000  Ry
     charge density cut-off    =     672.0000  Ry
     convergence threshold     =      1.0E-14
     beta                      =       0.7000
     number of iterations used =            4
     Exchange-correlation= PBE
                           (   1   4   3   4   0   0   0)


     celldm(1)=    5.87334  celldm(2)=    0.00000  celldm(3)=    1.07051
     celldm(4)=    0.00000  celldm(5)=    0.00000  celldm(6)=    0.00000

     crystal axes: (cart. coord. in units of alat)
               a(1) = (  1.0000  0.0000  0.0000 )  
               a(2) = ( -0.5000  0.8660  0.0000 )  
               a(3) = (  0.0000  0.0000  1.0705 )  

     reciprocal axes: (cart. coord. in units 2 pi/alat)
               b(1) = (  1.0000  0.5774  0.0000 )  
               b(2) = (  0.0000  1.1547  0.0000 )  
               b(3) = (  0.0000  0.0000  0.9341 )  


     Atoms inside the unit cell: 

     Cartesian axes

     site n.  atom      mass           positions (alat units)
        1     Mo  92.9060   tau(    1) = (    0.00000    0.00000    0.00000  )
        2     B   10.8100   tau(    2) = (    0.50000    0.28868    0.53526  )
        3     B   10.8100   tau(    3) = (    0.00000    0.57735    0.53526  )

     Computing dynamical matrix for 
                    q = (   0.0000000   0.0000000   0.3113766 )
 
     12 Sym.Ops. (no q -> -q+G )


     G cutoff =  587.1906  (   6903 G-vectors)     FFT grid: ( 50, 50, 54)
     G cutoff =  167.7687  (   1049 G-vectors)  smooth grid: ( 25, 25, 27)

     number of k points=  2928  Gaussian smearing, width (Ry)=  0.0150

     PseudoPot. # 1 for Xx read from file:
     /home/marcocarmonaga/Apps/qe-7.0/pseudo/Nb1.00Mo0.00.upf
     MD5 check sum: e4b562b21cfca1bf7e2ab47e57cae993
     Pseudo is Norm-conserving, Zval = 13.0
     Generated using virtual.x code
     Using radial grid of  602 points, 12 beta functions with: 
                l(1) =   0
                l(2) =   0
                l(3) =   1
                l(4) =   1
                l(5) =   2
                l(6) =   2
                l(7) =   0
                l(8) =   0
                l(9) =   1
               l(10) =   1
               l(11) =   2
               l(12) =   2

     PseudoPot. # 2 for B  read from file:
     /home/marcocarmonaga/Apps/qe-7.0/pseudo/B_ONCV_PBE-1.2.upf
     MD5 check sum: eb3cbeacc2d324d57d903df00f564d27
     Pseudo is Norm-conserving, Zval =  3.0
     Generated using ONCVPSP code by D. R. Hamann
     Using radial grid of  602 points,  4 beta functions with: 
                l(1) =   0
                l(2) =   0
                l(3) =   1
                l(4) =   1

     Mode symmetry, C_6v (6mm)  point group:


     Atomic displacements:
     There are    6 irreducible representations

     Representation     1      1 modes -  To be done

     Representation     2      1 modes -  To be done

     Representation     3      1 modes -  To be done

     Representation     4      2 modes -  To be done

     Representation     5      2 modes -  To be done

     Representation     6      2 modes -  To be done



     Alpha used in Ewald sum =   2.8000
     PHONON       :   4m 0.32s CPU   4m 6.55s WALL



     Representation #   1 mode #   1

     Self-consistent Calculation

      iter #   1 total cpu time :   280.5 secs   av.it.:   9.3
      thresh= 1.000E-02 alpha_mix =  0.700 |ddv_scf|^2 =  9.035E-03

      iter #   2 total cpu time :   315.8 secs   av.it.:  11.6
      thresh= 9.505E-03 alpha_mix =  0.700 |ddv_scf|^2 =  1.021E+00

      iter #   3 total cpu time :   350.9 secs   av.it.:  11.4
      thresh= 1.000E-02 alpha_mix =  0.700 |ddv_scf|^2 =  2.108E-03

      iter #   4 total cpu time :   382.7 secs   av.it.:  10.4
      thresh= 4.591E-03 alpha_mix =  0.700 |ddv_scf|^2 =  3.352E-04

      iter #   5 total cpu time :   413.6 secs   av.it.:  10.0
      thresh= 1.831E-03 alpha_mix =  0.700 |ddv_scf|^2 =  3.173E-06

      iter #   6 total cpu time :   444.1 secs   av.it.:   9.9
      thresh= 1.781E-04 alpha_mix =  0.700 |ddv_scf|^2 =  6.399E-08

      iter #   7 total cpu time :   473.7 secs   av.it.:   9.5
      thresh= 2.530E-05 alpha_mix =  0.700 |ddv_scf|^2 =  8.363E-10

      iter #   8 total cpu time :   503.7 secs   av.it.:   9.7
      thresh= 2.892E-06 alpha_mix =  0.700 |ddv_scf|^2 =  9.666E-13

      iter #   9 total cpu time :   539.8 secs   av.it.:  12.2
      thresh= 9.832E-08 alpha_mix =  0.700 |ddv_scf|^2 =  2.701E-11

      iter #  10 total cpu time :   567.5 secs   av.it.:   8.7
      thresh= 5.197E-07 alpha_mix =  0.700 |ddv_scf|^2 =  7.672E-13

      iter #  11 total cpu time :   600.0 secs   av.it.:  10.8
      thresh= 8.759E-08 alpha_mix =  0.700 |ddv_scf|^2 =  1.610E-13

      iter #  12 total cpu time :   632.5 secs   av.it.:  10.8
      thresh= 4.013E-08 alpha_mix =  0.700 |ddv_scf|^2 =  1.853E-14

      iter #  13 total cpu time :   663.8 secs   av.it.:  10.1
      thresh= 1.361E-08 alpha_mix =  0.700 |ddv_scf|^2 =  1.704E-16

     End of self-consistent calculation

     Convergence has been achieved 


     Representation #   2 mode #   2

     Self-consistent Calculation

      iter #   1 total cpu time :   693.0 secs   av.it.:   7.2
      thresh= 1.000E-02 alpha_mix =  0.700 |ddv_scf|^2 =  1.328E-03

      iter #   2 total cpu time :   727.7 secs   av.it.:  11.6
      thresh= 3.644E-03 alpha_mix =  0.700 |ddv_scf|^2 =  1.706E-01

      iter #   3 total cpu time :   759.0 secs   av.it.:  10.2
      thresh= 1.000E-02 alpha_mix =  0.700 |ddv_scf|^2 =  1.544E-05

      iter #   4 total cpu time :   794.4 secs   av.it.:  11.9
      thresh= 3.929E-04 alpha_mix =  0.700 |ddv_scf|^2 =  7.277E-05

      iter #   5 total cpu time :   825.4 secs   av.it.:  10.1
      thresh= 8.531E-04 alpha_mix =  0.700 |ddv_scf|^2 =  7.991E-07

      iter #   6 total cpu time :   855.2 secs   av.it.:   9.6
      thresh= 8.939E-05 alpha_mix =  0.700 |ddv_scf|^2 =  1.184E-08

      iter #   7 total cpu time :   885.0 secs   av.it.:   9.6
      thresh= 1.088E-05 alpha_mix =  0.700 |ddv_scf|^2 =  3.128E-12

      iter #   8 total cpu time :   919.4 secs   av.it.:  11.4
      thresh= 1.769E-07 alpha_mix =  0.700 |ddv_scf|^2 =  1.041E-12

      iter #   9 total cpu time :   951.8 secs   av.it.:  10.7
      thresh= 1.020E-07 alpha_mix =  0.700 |ddv_scf|^2 =  8.751E-13

      iter #  10 total cpu time :   981.7 secs   av.it.:   9.6
      thresh= 9.355E-08 alpha_mix =  0.700 |ddv_scf|^2 =  2.954E-13

      iter #  11 total cpu time :  1013.0 secs   av.it.:  10.3
      thresh= 5.435E-08 alpha_mix =  0.700 |ddv_scf|^2 =  1.915E-14

      iter #  12 total cpu time :  1044.5 secs   av.it.:  10.4
      thresh= 1.384E-08 alpha_mix =  0.700 |ddv_scf|^2 =  2.319E-16

     End of self-consistent calculation

     Convergence has been achieved 


     Representation #   3 mode #   3

     Self-consistent Calculation

      iter #   1 total cpu time :  1067.6 secs   av.it.:   4.9
      thresh= 1.000E-02 alpha_mix =  0.700 |ddv_scf|^2 =  6.632E-08

      iter #   2 total cpu time :  1102.0 secs   av.it.:  11.4
      thresh= 2.575E-05 alpha_mix =  0.700 |ddv_scf|^2 =  2.337E-09

      iter #   3 total cpu time :  1134.4 secs   av.it.:  10.7
      thresh= 4.835E-06 alpha_mix =  0.700 |ddv_scf|^2 =  2.625E-10

      iter #   4 total cpu time :  1167.5 secs   av.it.:  11.0
      thresh= 1.620E-06 alpha_mix =  0.700 |ddv_scf|^2 =  3.258E-11

      iter #   5 total cpu time :  1200.7 secs   av.it.:  11.0
      thresh= 5.708E-07 alpha_mix =  0.700 |ddv_scf|^2 =  5.883E-15

     End of self-consistent calculation

     Convergence has been achieved 


     Representation #   4 modes #   4   5

     Self-consistent Calculation

      iter #   1 total cpu time :  1247.6 secs   av.it.:   5.4
      thresh= 1.000E-02 alpha_mix =  0.700 |ddv_scf|^2 =  2.135E-08

      iter #   2 total cpu time :  1323.8 secs   av.it.:  13.1
      thresh= 1.461E-05 alpha_mix =  0.700 |ddv_scf|^2 =  8.065E-10

      iter #   3 total cpu time :  1399.8 secs   av.it.:  13.1
      thresh= 2.840E-06 alpha_mix =  0.700 |ddv_scf|^2 =  7.421E-11

      iter #   4 total cpu time :  1472.2 secs   av.it.:  12.4
      thresh= 8.614E-07 alpha_mix =  0.700 |ddv_scf|^2 =  2.102E-12

      iter #   5 total cpu time :  1547.6 secs   av.it.:  13.0
      thresh= 1.450E-07 alpha_mix =  0.700 |ddv_scf|^2 =  3.880E-15

     End of self-consistent calculation

     Convergence has been achieved 


     Representation #   5 modes #   6   7

     Self-consistent Calculation

      iter #   1 total cpu time :  1609.9 secs   av.it.:   7.9
      thresh= 1.000E-02 alpha_mix =  0.700 |ddv_scf|^2 =  1.584E-06

      iter #   2 total cpu time :  1685.8 secs   av.it.:  13.1
      thresh= 1.259E-04 alpha_mix =  0.700 |ddv_scf|^2 =  1.217E-07

      iter #   3 total cpu time :  1761.0 secs   av.it.:  12.9
      thresh= 3.488E-05 alpha_mix =  0.700 |ddv_scf|^2 =  2.495E-10

      iter #   4 total cpu time :  1836.3 secs   av.it.:  12.9
      thresh= 1.580E-06 alpha_mix =  0.700 |ddv_scf|^2 =  3.496E-12

      iter #   5 total cpu time :  1911.4 secs   av.it.:  12.8
      thresh= 1.870E-07 alpha_mix =  0.700 |ddv_scf|^2 =  7.703E-14

      iter #   6 total cpu time :  1988.2 secs   av.it.:  13.3
      thresh= 2.775E-08 alpha_mix =  0.700 |ddv_scf|^2 =  6.328E-16

     End of self-consistent calculation

     Convergence has been achieved 


     Representation #   6 modes #   8   9

     Self-consistent Calculation

      iter #   1 total cpu time :  2037.8 secs   av.it.:   5.8
      thresh= 1.000E-02 alpha_mix =  0.700 |ddv_scf|^2 =  6.777E-08

      iter #   2 total cpu time :  2112.7 secs   av.it.:  12.8
      thresh= 2.603E-05 alpha_mix =  0.700 |ddv_scf|^2 =  1.393E-09

      iter #   3 total cpu time :  2187.5 secs   av.it.:  12.8
      thresh= 3.732E-06 alpha_mix =  0.700 |ddv_scf|^2 =  7.218E-11

      iter #   4 total cpu time :  2255.8 secs   av.it.:  11.3
      thresh= 8.496E-07 alpha_mix =  0.700 |ddv_scf|^2 =  1.688E-13

      iter #   5 total cpu time :  2331.5 secs   av.it.:  12.9
      thresh= 4.108E-08 alpha_mix =  0.700 |ddv_scf|^2 =  5.071E-16

     End of self-consistent calculation

     Convergence has been achieved 
 
     Number of q in the star =    2
     List of q in the star:
          1   0.000000000   0.000000000   0.311376641
          2   0.000000000   0.000000000  -0.311376641

     Diagonalizing the dynamical matrix

     q = (    0.000000000   0.000000000   0.311376641 ) 

 **************************************************************************
     freq (    1) =       4.322214 [THz] =     144.173534 [cm-1]
     freq (    2) =       4.322214 [THz] =     144.173534 [cm-1]
     freq (    3) =       5.281198 [THz] =     176.161788 [cm-1]
     freq (    4) =      12.390897 [THz] =     413.315819 [cm-1]
     freq (    5) =      12.390897 [THz] =     413.315819 [cm-1]
     freq (    6) =      15.808528 [THz] =     527.315741 [cm-1]
     freq (    7) =      15.920015 [THz] =     531.034538 [cm-1]
     freq (    8) =      22.518659 [THz] =     751.141625 [cm-1]
     freq (    9) =      22.518659 [THz] =     751.141625 [cm-1]
 **************************************************************************

     Mode symmetry, C_6v (6mm)  point group:

     freq (   1-   2) =        144.2  [cm-1]   --> E_1                
     freq (   3-   3) =        176.2  [cm-1]   --> A_1                
     freq (   4-   5) =        413.3  [cm-1]   --> E_1                
     freq (   6-   6) =        527.3  [cm-1]   --> A_1                
     freq (   7-   7) =        531.0  [cm-1]   --> B_1                
     freq (   8-   9) =        751.1  [cm-1]   --> E_2                
 
     init_run     :      0.16s CPU      0.18s WALL (       1 calls)
     electrons    :    231.64s CPU    237.61s WALL (       1 calls)

     Called by init_run:
     wfcinit      :      0.00s CPU      0.00s WALL (       1 calls)
     potinit      :      0.01s CPU      0.02s WALL (       1 calls)
     hinit0       :      0.03s CPU      0.04s WALL (       1 calls)

     Called by electrons:
     c_bands      :    231.53s CPU    237.50s WALL (       1 calls)
     v_of_rho     :      0.03s CPU      0.03s WALL (       2 calls)

     Called by c_bands:
     init_us_2    :     11.22s CPU     11.71s WALL (   90768 calls)
     init_us_2:cp :     10.91s CPU     11.44s WALL (   90768 calls)
     cegterg      :    218.61s CPU    224.14s WALL (    4534 calls)

     Called by *egterg:
     cdiaghg      :     78.81s CPU     80.67s WALL (   70549 calls)
     h_psi        :   1538.04s CPU   1610.64s WALL ( 1761642 calls)
     g_psi        :      0.62s CPU      0.64s WALL (   67621 calls)

     Called by h_psi:
     h_psi:calbec :    101.31s CPU    105.99s WALL ( 1761642 calls)
     vloc_psi     :   1331.13s CPU   1394.12s WALL ( 1761642 calls)
     add_vuspsi   :     85.65s CPU     90.10s WALL ( 1761642 calls)

     General routines
     calbec       :    177.55s CPU    185.96s WALL ( 3515545 calls)
     fft          :      0.60s CPU      0.70s WALL (     832 calls)
     ffts         :      1.42s CPU      1.49s WALL (   13356 calls)
     fftw         :   1410.32s CPU   1479.09s WALL (26413310 calls)
     interpolate  :      0.12s CPU      0.12s WALL (     126 calls)
 
     Parallel routines
 
     PHONON       :  37m 9.34s CPU  38m53.59s WALL

     INITIALIZATION: 
     phq_setup    :      0.03s CPU      0.04s WALL (       1 calls)
     phq_init     :      7.51s CPU      7.55s WALL (       1 calls)
 
     phq_init     :      7.51s CPU      7.55s WALL (       1 calls)
     init_vloc    :      0.05s CPU      0.05s WALL (       2 calls)
     init_us_1    :      0.01s CPU      0.03s WALL (       2 calls)
     init_us_2    :     11.22s CPU     11.71s WALL (   90768 calls)
 
     DYNAMICAL MATRIX:
     dynmat0      :      6.47s CPU      6.49s WALL (       1 calls)
     phqscf       :   1989.02s CPU   2086.96s WALL (       1 calls)
     dynmatrix    :      0.00s CPU      0.00s WALL (       1 calls)
 
     phqscf       :   1989.02s CPU   2086.96s WALL (       1 calls)
     solve_linter :   1979.86s CPU   2077.62s WALL (       6 calls)
     drhodv       :      9.15s CPU      9.34s WALL (       6 calls)
 
     dynmat0      :      6.47s CPU      6.49s WALL (       1 calls)
     dynmat_us    :      6.47s CPU      6.48s WALL (       1 calls)
     d2ionq       :      0.01s CPU      0.01s WALL (       1 calls)
 
     dynmat_us    :      6.47s CPU      6.48s WALL (       1 calls)
 
     phqscf       :   1989.02s CPU   2086.96s WALL (       1 calls)
     solve_linter :   1979.86s CPU   2077.62s WALL (       6 calls)
 
     solve_linter :   1979.86s CPU   2077.62s WALL (       6 calls)
     dvqpsi_us    :     51.82s CPU     53.42s WALL (   13176 calls)
     sth_kernel   :   1918.93s CPU   2014.92s WALL (      46 calls)
     apply_dpot_b :    102.47s CPU    108.21s WALL (   77592 calls)
     ortho        :     11.91s CPU     12.52s WALL (   90768 calls)
     cgsolve      :   1661.96s CPU   1743.08s WALL (   90768 calls)
     incdrhoscf   :    115.17s CPU    122.15s WALL (   90768 calls)
     dv_of_drho   :      1.03s CPU      1.11s WALL (      62 calls)
     mix_pot      :      0.21s CPU      0.21s WALL (      46 calls)
     psymdvscf    :      6.32s CPU      6.35s WALL (      46 calls)
 
     dvqpsi_us    :     51.82s CPU     53.42s WALL (   13176 calls)
     dvqpsi_us_on :     17.79s CPU     18.31s WALL (   13176 calls)
 
     cgsolve      :   1661.96s CPU   1743.08s WALL (   90768 calls)
     ch_psi       :   1605.93s CPU   1683.93s WALL ( 1686559 calls)
 
     ch_psi       :   1605.93s CPU   1683.93s WALL ( 1686559 calls)
     h_psi        :   1538.04s CPU   1610.64s WALL ( 1761642 calls)
     last         :    155.55s CPU    163.07s WALL ( 1686559 calls)
 
     h_psi        :   1538.04s CPU   1610.64s WALL ( 1761642 calls)
     add_vuspsi   :     85.65s CPU     90.10s WALL ( 1761642 calls)
 
     incdrhoscf   :    115.17s CPU    122.15s WALL (   90768 calls)
 
 
      General routines
     calbec       :    177.55s CPU    185.96s WALL ( 3515545 calls)
     fft          :      0.60s CPU      0.70s WALL (     832 calls)
     ffts         :      1.42s CPU      1.49s WALL (   13356 calls)
     fftw         :   1410.32s CPU   1479.09s WALL (26413310 calls)
 
 
     PHONON       :  37m 9.34s CPU  38m53.59s WALL

 
   This run was terminated on:   5:26:54  15Jun2022            

=------------------------------------------------------------------------------=
   JOB DONE.
=------------------------------------------------------------------------------=
