
     Program BANDS v.7.0 starts on 28Apr2022 at 10:25:26 

     This program is part of the open-source Quantum ESPRESSO suite
     for quantum simulation of materials; please cite
         "P. Giannozzi et al., J. Phys.:Condens. Matter 21 395502 (2009);
         "P. Giannozzi et al., J. Phys.:Condens. Matter 29 465901 (2017);
         "P. Giannozzi et al., J. Chem. Phys. 152 154105 (2020);
          URL http://www.quantum-espresso.org", 
     in publications or presentations arising from this work. More details at
     http://www.quantum-espresso.org/quote

     Parallel version (MPI), running on     8 processors

     MPI processes distributed on     1 nodes
     R & G space division:  proc/nbgrp/npool/nimage =       8
     2459 MiB available memory on the printing compute node when the environment starts
 

     Reading xml data from directory:

     ./tmp/mob2.save/

     IMPORTANT: XC functional enforced from input :
     Exchange-correlation= PBE
                           (   1   4   3   4   0   0   0)
     Any further DFT definition will be discarded
     Please, verify this is what you really want

 
     Parallelization info
     --------------------
     sticks:   dense  smooth     PW     G-vecs:    dense   smooth      PW
     Min          35      35     11                  496      496      97
     Max          37      37     12                  497      497     100
     Sum         283     283     91                 3975     3975     787
 
     Using Slab Decomposition
 
     Reading collected, re-writing distributed wavefunctions
     high-symmetry point:  0.0000 0.0000 0.0000   x coordinate   0.0000
     high-symmetry point:  0.0000 0.5774 0.0000   x coordinate   0.5774
     high-symmetry point:  0.3333 0.5774 0.0000   x coordinate   0.9107
     high-symmetry point:  0.0000 0.0000 0.0000   x coordinate   1.5774
     high-symmetry point:  0.0000 0.0000 0.4687   x coordinate   2.0461
     high-symmetry point:  0.0000 0.5774 0.4687   x coordinate   2.6234
     high-symmetry point:  0.3333 0.5774 0.4687   x coordinate   2.9568
     high-symmetry point:  0.0000 0.0000 0.4687   x coordinate   3.6234

     Plottable bands (eV) written to file mob2_bands.bands.gnu
     Bands written to file mob2_bands.bands

 **************************************************************************

                    xk=(   0.00000,   0.00000,   0.00000  )

     point group D_6h(6/mmm)
     there are 12 classes
     the character table:

       E     2C6   2C3   C2    3C2'  3C2'' i     2S3   2S6   s_h   3s_d  3s_v 
A_1g   1.00  1.00  1.00  1.00  1.00  1.00  1.00  1.00  1.00  1.00  1.00  1.00
A_2g   1.00  1.00  1.00  1.00 -1.00 -1.00  1.00  1.00  1.00  1.00 -1.00 -1.00
B_1g   1.00 -1.00  1.00 -1.00  1.00 -1.00  1.00 -1.00  1.00 -1.00  1.00 -1.00
B_2g   1.00 -1.00  1.00 -1.00 -1.00  1.00  1.00 -1.00  1.00 -1.00 -1.00  1.00
E_1g   2.00  1.00 -1.00 -2.00  0.00  0.00  2.00  1.00 -1.00 -2.00  0.00  0.00
E_2g   2.00 -1.00 -1.00  2.00  0.00  0.00  2.00 -1.00 -1.00  2.00  0.00  0.00
A_1u   1.00  1.00  1.00  1.00  1.00  1.00 -1.00 -1.00 -1.00 -1.00 -1.00 -1.00
A_2u   1.00  1.00  1.00  1.00 -1.00 -1.00 -1.00 -1.00 -1.00 -1.00  1.00  1.00
B_1u   1.00 -1.00  1.00 -1.00  1.00 -1.00 -1.00  1.00 -1.00  1.00 -1.00  1.00
B_2u   1.00 -1.00  1.00 -1.00 -1.00  1.00 -1.00  1.00 -1.00  1.00  1.00 -1.00
E_1u   2.00  1.00 -1.00 -2.00  0.00  0.00 -2.00 -1.00  1.00  2.00  0.00  0.00
E_2u   2.00 -1.00 -1.00  2.00  0.00  0.00 -2.00  1.00  1.00 -2.00  0.00  0.00

     the symmetry operations in each class and the name of the first element:

     E        1
                                                                 
     2C6      5    6
                                                                 
     2C3      7    8
                                                                 
     C2       2
                                                                 
     3C2'     4   12   11
                                                                 
     3C2''    3    9   10
                                                                 
     i       13
                                                                 
     2S3     17   18
                                                                 
     2S6     19   20
                                                                 
     s_h     14
                                                                 
     3s_d    16   24   23
                                                                 
     3s_v    15   21   22
                                                                 

     Band symmetry, D_6h(6/mmm) point group:

     e(  1 -  1) =    -36.24405  eV     1   --> A_1g           
     e(  2 -  2) =    -10.56070  eV     1   --> A_2u           
     e(  3 -  4) =     -9.86756  eV     2   --> E_1u           
     e(  5 -  5) =      9.03966  eV     1   --> A_1g           
     e(  6 -  6) =     19.04545  eV     1   --> A_1g           
     e(  7 -  8) =     19.42317  eV     2   --> E_2g           
     e(  9 -  9) =     21.81006  eV     1   --> A_2u           
     e( 10 - 11) =     26.04895  eV     2   --> E_1g           
     e( 12 - 13) =     29.08391  eV     2   --> E_2g           
     e( 14 - 15) =     30.78919  eV     2   --> E_1u           
     e( 16 - 16) =     31.76358  eV     1   --> B_2u           
     e( 17 - 17) =     35.22517  eV     1   --> B_1g           
     e( 18 - 18) =     38.19670  eV     1   --> A_1g           
     e( 19 - 20) =     43.88019  eV     2   --> E_2u           

 **************************************************************************

 **************************************************************************

                    xk=(   0.00000,   0.01443,   0.00000  )

     point group C_2v (mm2) 
     there are  4 classes
     the character table:

       E     C2    s_v   s_v' 
A_1    1.00  1.00  1.00  1.00
A_2    1.00  1.00 -1.00 -1.00
B_1    1.00 -1.00  1.00 -1.00
B_2    1.00 -1.00 -1.00  1.00

     the symmetry operations in each class and the name of the first element:

     E        1
                                                                 
     C2       2
                                                                 
     s_v      3
                                                                 
     s_v'     4
                                                                 

     Band symmetry, C_2v (mm2)  point group:

     e(  1 -  1) =    -36.24374  eV     1   --> A_1  D_1  S_1  
     e(  2 -  2) =    -10.56031  eV     1   --> B_2  D_4  S_4  
     e(  3 -  3) =     -9.86987  eV     1   --> A_1  D_1  S_1  
     e(  4 -  4) =     -9.86807  eV     1   --> B_1  D_3  S_3  
     e(  5 -  5) =      9.04395  eV     1   --> A_1  D_1  S_1  
     e(  6 -  6) =     19.04898  eV     1   --> A_1  D_1  S_1  
     e(  7 -  7) =     19.41571  eV     1   --> A_1  D_1  S_1  
     e(  8 -  8) =     19.42601  eV     1   --> B_1  D_3  S_3  
     e(  9 -  9) =     21.79747  eV     1   --> B_2  D_4  S_4  
     e( 10 - 10) =     26.04682  eV     1   --> A_2  D_2  S_2  
     e( 11 - 11) =     26.06470  eV     1   --> B_2  D_4  S_4  
     e( 12 - 12) =     29.04659  eV     1   --> A_1  D_1  S_1  
     e( 13 - 13) =     29.05118  eV     1   --> B_1  D_3  S_3  
     e( 14 - 14) =     30.82620  eV     1   --> A_1  D_1  S_1  
     e( 15 - 15) =     30.83191  eV     1   --> B_1  D_3  S_3  
     e( 16 - 16) =     31.77988  eV     1   --> A_1  D_1  S_1  
     e( 17 - 17) =     35.20698  eV     1   --> B_2  D_4  S_4  
     e( 18 - 18) =     38.19850  eV     1   --> A_1  D_1  S_1  
     e( 19 - 19) =     43.88863  eV     1   --> A_2  D_2  S_2  
     e( 20 - 20) =     43.90982  eV     1   --> B_2  D_4  S_4  

 **************************************************************************

 **************************************************************************

                    xk=(   0.00000,   0.02887,   0.00000  )

     Band symmetry, C_2v (mm2)  point group:

     e(  1 -  1) =    -36.24281  eV     1   --> A_1  D_1  S_1  
     e(  2 -  2) =    -10.55915  eV     1   --> B_2  D_4  S_4  
     e(  3 -  3) =     -9.87679  eV     1   --> A_1  D_1  S_1  
     e(  4 -  4) =     -9.86960  eV     1   --> B_1  D_3  S_3  
     e(  5 -  5) =      9.05613  eV     1   --> A_1  D_1  S_1  
     e(  6 -  6) =     19.05950  eV     1   --> A_1  D_1  S_1  
     e(  7 -  7) =     19.39239  eV     1   --> A_1  D_1  S_1  
     e(  8 -  8) =     19.43407  eV     1   --> B_1  D_3  S_3  
     e(  9 -  9) =     21.76072  eV     1   --> B_2  D_4  S_4  
     e( 10 - 10) =     26.04045  eV     1   --> A_2  D_2  S_2  
     e( 11 - 11) =     26.11128  eV     1   --> B_2  D_4  S_4  
     e( 12 - 12) =     28.94163  eV     1   --> A_1  D_1  S_1  
     e( 13 - 13) =     28.96116  eV     1   --> B_1  D_3  S_3  
     e( 14 - 14) =     30.92706  eV     1   --> A_1  D_1  S_1  
     e( 15 - 15) =     30.95064  eV     1   --> B_1  D_3  S_3  
     e( 16 - 16) =     31.82840  eV     1   --> A_1  D_1  S_1  
     e( 17 - 17) =     35.15604  eV     1   --> B_2  D_4  S_4  
     e( 18 - 18) =     38.20422  eV     1   --> A_1  D_1  S_1  
     e( 19 - 19) =     43.91454  eV     1   --> A_2  D_2  S_2  
     e( 20 - 20) =     43.99807  eV     1   --> B_2  D_4  S_4  

 **************************************************************************

 **************************************************************************

                    xk=(   0.00000,   0.04330,   0.00000  )

     Band symmetry, C_2v (mm2)  point group:

     e(  1 -  1) =    -36.24129  eV     1   --> A_1  D_1  S_1  
     e(  2 -  2) =    -10.55722  eV     1   --> B_2  D_4  S_4  
     e(  3 -  3) =     -9.88825  eV     1   --> A_1  D_1  S_1  
     e(  4 -  4) =     -9.87214  eV     1   --> B_1  D_3  S_3  
     e(  5 -  5) =      9.07632  eV     1   --> A_1  D_1  S_1  
     e(  6 -  6) =     19.07685  eV     1   --> A_1  D_1  S_1  
     e(  7 -  7) =     19.35260  eV     1   --> A_1  D_1  S_1  
     e(  8 -  8) =     19.44686  eV     1   --> B_1  D_3  S_3  
     e(  9 -  9) =     21.70070  eV     1   --> B_2  D_4  S_4  
     e( 10 - 10) =     26.02990  eV     1   --> A_2  D_2  S_2  
     e( 11 - 11) =     26.18678  eV     1   --> B_2  D_4  S_4  
     e( 12 - 12) =     28.78585  eV     1   --> A_1  D_1  S_1  
     e( 13 - 13) =     28.83106  eV     1   --> B_1  D_3  S_3  
     e( 14 - 14) =     31.07164  eV     1   --> A_1  D_1  S_1  
     e( 15 - 15) =     31.12677  eV     1   --> B_1  D_3  S_3  
     e( 16 - 16) =     31.90761  eV     1   --> A_1  D_1  S_1  
     e( 17 - 17) =     35.06936  eV     1   --> B_2  D_4  S_4  
     e( 18 - 18) =     38.21282  eV     1   --> A_1  D_1  S_1  
     e( 19 - 19) =     43.95665  eV     1   --> A_2  D_2  S_2  
     e( 20 - 20) =     44.14203  eV     1   --> B_2  D_4  S_4  

 **************************************************************************

 **************************************************************************

                    xk=(   0.00000,   0.05774,   0.00000  )

     Band symmetry, C_2v (mm2)  point group:

     e(  1 -  1) =    -36.23916  eV     1   --> A_1  D_1  S_1  
     e(  2 -  2) =    -10.55455  eV     1   --> B_2  D_4  S_4  
     e(  3 -  3) =     -9.90417  eV     1   --> A_1  D_1  S_1  
     e(  4 -  4) =     -9.87567  eV     1   --> B_1  D_3  S_3  
     e(  5 -  5) =      9.10458  eV     1   --> A_1  D_1  S_1  
     e(  6 -  6) =     19.10076  eV     1   --> A_1  D_1  S_1  
     e(  7 -  7) =     19.29789  eV     1   --> A_1  D_1  S_1  
     e(  8 -  8) =     19.46492  eV     1   --> B_1  D_3  S_3  
     e(  9 -  9) =     21.62041  eV     1   --> B_2  D_4  S_4  
     e( 10 - 10) =     26.01525  eV     1   --> A_2  D_2  S_2  
     e( 11 - 11) =     26.28834  eV     1   --> B_2  D_4  S_4  
     e( 12 - 12) =     28.59940  eV     1   --> A_1  D_1  S_1  
     e( 13 - 13) =     28.67917  eV     1   --> B_1  D_3  S_3  
     e( 14 - 14) =     31.24365  eV     1   --> A_1  D_1  S_1  
     e( 15 - 15) =     31.34470  eV     1   --> B_1  D_3  S_3  
     e( 16 - 16) =     32.01664  eV     1   --> A_1  D_1  S_1  
     e( 17 - 17) =     34.95366  eV     1   --> B_2  D_4  S_4  
     e( 18 - 18) =     38.22454  eV     1   --> A_1  D_1  S_1  
     e( 19 - 19) =     44.01542  eV     1   --> A_2  D_2  S_2  
     e( 20 - 20) =     44.33821  eV     1   --> B_2  D_4  S_4  

 **************************************************************************

 **************************************************************************

                    xk=(   0.00000,   0.07217,   0.00000  )

     Band symmetry, C_2v (mm2)  point group:

     e(  1 -  1) =    -36.23644  eV     1   --> A_1  D_1  S_1  
     e(  2 -  2) =    -10.55113  eV     1   --> B_2  D_4  S_4  
     e(  3 -  3) =     -9.92442  eV     1   --> A_1  D_1  S_1  
     e(  4 -  4) =     -9.88016  eV     1   --> B_1  D_3  S_3  
     e(  5 -  5) =      9.14069  eV     1   --> A_1  D_1  S_1  
     e(  6 -  6) =     19.13069  eV     1   --> A_1  D_1  S_1  
     e(  7 -  7) =     19.22968  eV     1   --> A_1  D_1  S_1  
     e(  8 -  8) =     19.48787  eV     1   --> B_1  D_3  S_3  
     e(  9 -  9) =     21.52306  eV     1   --> B_2  D_4  S_4  
     e( 10 - 10) =     25.99667  eV     1   --> A_2  D_2  S_2  
     e( 11 - 11) =     26.41257  eV     1   --> B_2  D_4  S_4  
     e( 12 - 12) =     28.39540  eV     1   --> A_1  D_1  S_1  
     e( 13 - 13) =     28.51819  eV     1   --> B_1  D_3  S_3  
     e( 14 - 14) =     31.43278  eV     1   --> A_1  D_1  S_1  
     e( 15 - 15) =     31.59041  eV     1   --> B_1  D_3  S_3  
     e( 16 - 16) =     32.15344  eV     1   --> A_1  D_1  S_1  
     e( 17 - 17) =     34.81548  eV     1   --> B_2  D_4  S_4  
     e( 18 - 18) =     38.23918  eV     1   --> A_1  D_1  S_1  
     e( 19 - 19) =     44.09078  eV     1   --> A_2  D_2  S_2  
     e( 20 - 20) =     44.58220  eV     1   --> B_2  D_4  S_4  

 **************************************************************************

 **************************************************************************

                    xk=(   0.00000,   0.08660,   0.00000  )

     Band symmetry, C_2v (mm2)  point group:

     e(  1 -  1) =    -36.23317  eV     1   --> A_1  D_1  S_1  
     e(  2 -  2) =    -10.54699  eV     1   --> B_2  D_4  S_4  
     e(  3 -  3) =     -9.94885  eV     1   --> A_1  D_1  S_1  
     e(  4 -  4) =     -9.88560  eV     1   --> B_1  D_3  S_3  
     e(  5 -  5) =      9.18436  eV     1   --> A_1  D_1  S_1  
     e(  6 -  6) =     19.14386  eV     1   --> A_1  D_1  S_1  
     e(  7 -  7) =     19.17037  eV     1   --> A_1  D_1  S_1  
     e(  8 -  8) =     19.51472  eV     1   --> B_1  D_3  S_3  
     e(  9 -  9) =     21.41132  eV     1   --> B_2  D_4  S_4  
     e( 10 - 10) =     25.97429  eV     1   --> A_2  D_2  S_2  
     e( 11 - 11) =     26.55574  eV     1   --> B_2  D_4  S_4  
     e( 12 - 12) =     28.18175  eV     1   --> A_1  D_1  S_1  
     e( 13 - 13) =     28.35291  eV     1   --> B_1  D_3  S_3  
     e( 14 - 14) =     31.62988  eV     1   --> A_1  D_1  S_1  
     e( 15 - 15) =     31.85750  eV     1   --> B_1  D_3  S_3  
     e( 16 - 16) =     32.31489  eV     1   --> A_1  D_1  S_1  
     e( 17 - 17) =     34.65648  eV     1   --> B_2  D_4  S_4  
     e( 18 - 18) =     38.25583  eV     1   --> A_1  D_1  S_1  
     e( 19 - 19) =     44.18233  eV     1   --> A_2  D_2  S_2  
     e( 20 - 20) =     44.86892  eV     1   --> B_2  D_4  S_4  

 **************************************************************************

 **************************************************************************

                    xk=(   0.00000,   0.10104,   0.00000  )

     Band symmetry, C_2v (mm2)  point group:

     e(  1 -  1) =    -36.22935  eV     1   --> A_1  D_1  S_1  
     e(  2 -  2) =    -10.54215  eV     1   --> B_2  D_4  S_4  
     e(  3 -  3) =     -9.97727  eV     1   --> A_1  D_1  S_1  
     e(  4 -  4) =     -9.89193  eV     1   --> B_1  D_3  S_3  
     e(  5 -  5) =      9.23538  eV     1   --> A_1  D_1  S_1  
     e(  6 -  6) =     19.05173  eV     1   --> A_1  D_1  S_1  
     e(  7 -  7) =     19.20921  eV     1   --> A_1  D_1  S_1  
     e(  8 -  8) =     19.54557  eV     1   --> B_1  D_3  S_3  
     e(  9 -  9) =     21.28782  eV     1   --> B_2  D_4  S_4  
     e( 10 - 10) =     25.94833  eV     1   --> A_2  D_2  S_2  
     e( 11 - 11) =     26.71405  eV     1   --> B_2  D_4  S_4  
     e( 12 - 12) =     27.96299  eV     1   --> A_1  D_1  S_1  
     e( 13 - 13) =     28.18952  eV     1   --> B_1  D_3  S_3  
     e( 14 - 14) =     31.83169  eV     1   --> A_1  D_1  S_1  
     e( 15 - 15) =     32.14102  eV     1   --> B_1  D_3  S_3  
     e( 16 - 16) =     32.49764  eV     1   --> A_1  D_1  S_1  
     e( 17 - 17) =     34.48344  eV     1   --> B_2  D_4  S_4  
     e( 18 - 18) =     38.27247  eV     1   --> A_1  D_1  S_1  
     e( 19 - 19) =     44.28987  eV     1   --> A_2  D_2  S_2  
     e( 20 - 20) =     45.19341  eV     1   --> B_2  D_4  S_4  

 **************************************************************************

 **************************************************************************

                    xk=(   0.00000,   0.11547,   0.00000  )

     Band symmetry, C_2v (mm2)  point group:

     e(  1 -  1) =    -36.22501  eV     1   --> A_1  D_1  S_1  
     e(  2 -  2) =    -10.53665  eV     1   --> B_2  D_4  S_4  
     e(  3 -  3) =    -10.00946  eV     1   --> A_1  D_1  S_1  
     e(  4 -  4) =     -9.89912  eV     1   --> B_1  D_3  S_3  
     e(  5 -  5) =      9.29384  eV     1   --> A_1  D_1  S_1  
     e(  6 -  6) =     18.94670  eV     1   --> A_1  D_1  S_1  
     e(  7 -  7) =     19.25484  eV     1   --> A_1  D_1  S_1  
     e(  8 -  8) =     19.58003  eV     1   --> B_1  D_3  S_3  
     e(  9 -  9) =     21.15626  eV     1   --> B_2  D_4  S_4  
     e( 10 - 10) =     25.91902  eV     1   --> A_2  D_2  S_2  
     e( 11 - 11) =     26.88408  eV     1   --> B_2  D_4  S_4  
     e( 12 - 12) =     27.74615  eV     1   --> A_1  D_1  S_1  
     e( 13 - 13) =     28.03071  eV     1   --> B_1  D_3  S_3  
     e( 14 - 14) =     32.03551  eV     1   --> A_1  D_1  S_1  
     e( 15 - 15) =     32.43875  eV     1   --> B_1  D_3  S_3  
     e( 16 - 16) =     32.70008  eV     1   --> A_1  D_1  S_1  
     e( 17 - 17) =     34.30195  eV     1   --> B_2  D_4  S_4  
     e( 18 - 18) =     38.29033  eV     1   --> A_1  D_1  S_1  
     e( 19 - 19) =     44.41303  eV     1   --> A_2  D_2  S_2  
     e( 20 - 20) =     45.55154  eV     1   --> B_2  D_4  S_4  

 **************************************************************************

 **************************************************************************

                    xk=(   0.00000,   0.12990,   0.00000  )

     Band symmetry, C_2v (mm2)  point group:

     e(  1 -  1) =    -36.22014  eV     1   --> A_1  D_1  S_1  
     e(  2 -  2) =    -10.53052  eV     1   --> B_2  D_4  S_4  
     e(  3 -  3) =    -10.04518  eV     1   --> A_1  D_1  S_1  
     e(  4 -  4) =     -9.90712  eV     1   --> B_1  D_3  S_3  
     e(  5 -  5) =      9.35962  eV     1   --> A_1  D_1  S_1  
     e(  6 -  6) =     18.83247  eV     1   --> A_1  D_1  S_1  
     e(  7 -  7) =     19.30431  eV     1   --> A_1  D_1  S_1  
     e(  8 -  8) =     19.61856  eV     1   --> B_1  D_3  S_3  
     e(  9 -  9) =     21.01851  eV     1   --> B_2  D_4  S_4  
     e( 10 - 10) =     25.88661  eV     1   --> A_2  D_2  S_2  
     e( 11 - 11) =     27.06224  eV     1   --> B_2  D_4  S_4  
     e( 12 - 12) =     27.53428  eV     1   --> A_1  D_1  S_1  
     e( 13 - 13) =     27.87987  eV     1   --> B_1  D_3  S_3  
     e( 14 - 14) =     32.24068  eV     1   --> A_1  D_1  S_1  
     e( 15 - 15) =     32.75027  eV     1   --> B_1  D_3  S_3  
     e( 16 - 16) =     32.92110  eV     1   --> A_1  D_1  S_1  
     e( 17 - 17) =     34.11755  eV     1   --> B_2  D_4  S_4  
     e( 18 - 18) =     38.30892  eV     1   --> A_1  D_1  S_1  
     e( 19 - 19) =     44.55193  eV     1   --> A_2  D_2  S_2  
     e( 20 - 20) =     45.93890  eV     1   --> B_2  D_4  S_4  

 **************************************************************************

 **************************************************************************

                    xk=(   0.00000,   0.14434,   0.00000  )

     Band symmetry, C_2v (mm2)  point group:

     e(  1 -  1) =    -36.21481  eV     1   --> A_1  D_1  S_1  
     e(  2 -  2) =    -10.52378  eV     1   --> B_2  D_4  S_4  
     e(  3 -  3) =    -10.08416  eV     1   --> A_1  D_1  S_1  
     e(  4 -  4) =     -9.91588  eV     1   --> B_1  D_3  S_3  
     e(  5 -  5) =      9.43204  eV     1   --> A_1  D_1  S_1  
     e(  6 -  6) =     18.70949  eV     1   --> A_1  D_1  S_1  
     e(  7 -  7) =     19.35654  eV     1   --> A_1  D_1  S_1  
     e(  8 -  8) =     19.65938  eV     1   --> B_1  D_3  S_3  
     e(  9 -  9) =     20.87650  eV     1   --> B_2  D_4  S_4  
     e( 10 - 10) =     25.85136  eV     1   --> A_2  D_2  S_2  
     e( 11 - 11) =     27.24502  eV     1   --> B_2  D_4  S_4  
     e( 12 - 12) =     27.32847  eV     1   --> A_1  D_1  S_1  
     e( 13 - 13) =     27.73749  eV     1   --> B_1  D_3  S_3  
     e( 14 - 14) =     32.44339  eV     1   --> A_1  D_1  S_1  
     e( 15 - 15) =     33.07050  eV     1   --> B_1  D_3  S_3  
     e( 16 - 16) =     33.15925  eV     1   --> A_1  D_1  S_1  
     e( 17 - 17) =     33.93382  eV     1   --> B_2  D_4  S_4  
     e( 18 - 18) =     38.32632  eV     1   --> A_1  D_1  S_1  
     e( 19 - 19) =     44.70562  eV     1   --> A_2  D_2  S_2  
     e( 20 - 20) =     46.35156  eV     1   --> B_2  D_4  S_4  

 **************************************************************************

 **************************************************************************

                    xk=(   0.00000,   0.15877,   0.00000  )

     Band symmetry, C_2v (mm2)  point group:

     e(  1 -  1) =    -36.20904  eV     1   --> A_1  D_1  S_1  
     e(  2 -  2) =    -10.51648  eV     1   --> B_2  D_4  S_4  
     e(  3 -  3) =    -10.12612  eV     1   --> A_1  D_1  S_1  
     e(  4 -  4) =     -9.92534  eV     1   --> B_1  D_3  S_3  
     e(  5 -  5) =      9.51103  eV     1   --> A_1  D_1  S_1  
     e(  6 -  6) =     18.57932  eV     1   --> A_1  D_1  S_1  
     e(  7 -  7) =     19.41038  eV     1   --> A_1  D_1  S_1  
     e(  8 -  8) =     19.70253  eV     1   --> B_1  D_3  S_3  
     e(  9 -  9) =     20.73190  eV     1   --> B_2  D_4  S_4  
     e( 10 - 10) =     25.81357  eV     1   --> A_2  D_2  S_2  
     e( 11 - 11) =     27.13180  eV     1   --> A_1  D_1  S_1  
     e( 12 - 12) =     27.42893  eV     1   --> B_2  D_4  S_4  
     e( 13 - 13) =     27.60494  eV     1   --> B_1  D_3  S_3  
     e( 14 - 14) =     32.64087  eV     1   --> A_1  D_1  S_1  
     e( 15 - 15) =     33.40026  eV     1   --> B_1  D_3  S_3  
     e( 16 - 16) =     33.41437  eV     1   --> A_1  D_1  S_1  
     e( 17 - 17) =     33.75591  eV     1   --> B_2  D_4  S_4  
     e( 18 - 18) =     38.34135  eV     1   --> A_1  D_1  S_1  
     e( 19 - 19) =     44.87391  eV     1   --> A_2  D_2  S_2  
     e( 20 - 20) =     46.78595  eV     1   --> B_2  D_4  S_4  

 **************************************************************************

 **************************************************************************

                    xk=(   0.00000,   0.17321,   0.00000  )

     Band symmetry, C_2v (mm2)  point group:

     e(  1 -  1) =    -36.20286  eV     1   --> A_1  D_1  S_1  
     e(  2 -  2) =    -10.50867  eV     1   --> B_2  D_4  S_4  
     e(  3 -  3) =    -10.17076  eV     1   --> A_1  D_1  S_1  
     e(  4 -  4) =     -9.93543  eV     1   --> B_1  D_3  S_3  
     e(  5 -  5) =      9.59575  eV     1   --> A_1  D_1  S_1  
     e(  6 -  6) =     18.44309  eV     1   --> A_1  D_1  S_1  
     e(  7 -  7) =     19.46452  eV     1   --> A_1  D_1  S_1  
     e(  8 -  8) =     19.74743  eV     1   --> B_1  D_3  S_3  
     e(  9 -  9) =     20.58521  eV     1   --> B_2  D_4  S_4  
     e( 10 - 10) =     25.77353  eV     1   --> A_2  D_2  S_2  
     e( 11 - 11) =     26.94656  eV     1   --> A_1  D_1  S_1  
     e( 12 - 12) =     27.48309  eV     1   --> B_1  D_3  S_3  
     e( 13 - 13) =     27.60992  eV     1   --> B_2  D_4  S_4  
     e( 14 - 14) =     32.83055  eV     1   --> A_1  D_1  S_1  
     e( 15 - 15) =     33.58838  eV     1   --> B_2  D_4  S_4  
     e( 16 - 16) =     33.68636  eV     1   --> A_1  D_1  S_1  
     e( 17 - 17) =     33.73878  eV     1   --> B_1  D_3  S_3  
     e( 18 - 18) =     38.35233  eV     1   --> A_1  D_1  S_1  
     e( 19 - 19) =     45.05633  eV     1   --> A_2  D_2  S_2  
     e( 20 - 20) =     47.23871  eV     1   --> B_2  D_4  S_4  

 **************************************************************************

 **************************************************************************

                    xk=(   0.00000,   0.18764,   0.00000  )

     Band symmetry, C_2v (mm2)  point group:

     e(  1 -  1) =    -36.19631  eV     1   --> A_1  D_1  S_1  
     e(  2 -  2) =    -10.50038  eV     1   --> B_2  D_4  S_4  
     e(  3 -  3) =    -10.21776  eV     1   --> A_1  D_1  S_1  
     e(  4 -  4) =     -9.94610  eV     1   --> B_1  D_3  S_3  
     e(  5 -  5) =      9.68703  eV     1   --> A_1  D_1  S_1  
     e(  6 -  6) =     18.30187  eV     1   --> A_1  D_1  S_1  
     e(  7 -  7) =     19.51758  eV     1   --> A_1  D_1  S_1  
     e(  8 -  8) =     19.79351  eV     1   --> B_1  D_3  S_3  
     e(  9 -  9) =     20.43942  eV     1   --> B_2  D_4  S_4  
     e( 10 - 10) =     25.73157  eV     1   --> A_2  D_2  S_2  
     e( 11 - 11) =     26.77502  eV     1   --> A_1  D_1  S_1  
     e( 12 - 12) =     27.37269  eV     1   --> B_1  D_3  S_3  
     e( 13 - 13) =     27.78503  eV     1   --> B_2  D_4  S_4  
     e( 14 - 14) =     33.01045  eV     1   --> A_1  D_1  S_1  
     e( 15 - 15) =     33.43578  eV     1   --> B_2  D_4  S_4  
     e( 16 - 16) =     33.97481  eV     1   --> A_1  D_1  S_1  
     e( 17 - 17) =     34.08547  eV     1   --> B_1  D_3  S_3  
     e( 18 - 18) =     38.35855  eV     1   --> A_1  D_1  S_1  
     e( 19 - 19) =     45.25250  eV     1   --> A_2  D_2  S_2  
     e( 20 - 20) =     47.70659  eV     1   --> B_2  D_4  S_4  

 **************************************************************************

 **************************************************************************

                    xk=(   0.00000,   0.20207,   0.00000  )

     Band symmetry, C_2v (mm2)  point group:

     e(  1 -  1) =    -36.18942  eV     1   --> A_1  D_1  S_1  
     e(  2 -  2) =    -10.49168  eV     1   --> B_2  D_4  S_4  
     e(  3 -  3) =    -10.26680  eV     1   --> A_1  D_1  S_1  
     e(  4 -  4) =     -9.95727  eV     1   --> B_1  D_3  S_3  
     e(  5 -  5) =      9.78399  eV     1   --> A_1  D_1  S_1  
     e(  6 -  6) =     18.15663  eV     1   --> A_1  D_1  S_1  
     e(  7 -  7) =     19.56802  eV     1   --> A_1  D_1  S_1  
     e(  8 -  8) =     19.84017  eV     1   --> B_1  D_3  S_3  
     e(  9 -  9) =     20.29457  eV     1   --> B_2  D_4  S_4  
     e( 10 - 10) =     25.68799  eV     1   --> A_2  D_2  S_2  
     e( 11 - 11) =     26.61937  eV     1   --> A_1  D_1  S_1  
     e( 12 - 12) =     27.27431  eV     1   --> B_1  D_3  S_3  
     e( 13 - 13) =     27.94989  eV     1   --> B_2  D_4  S_4  
     e( 14 - 14) =     33.17923  eV     1   --> A_1  D_1  S_1  
     e( 15 - 15) =     33.30271  eV     1   --> B_2  D_4  S_4  
     e( 16 - 16) =     34.27883  eV     1   --> A_1  D_1  S_1  
     e( 17 - 17) =     34.43980  eV     1   --> B_1  D_3  S_3  
     e( 18 - 18) =     38.35823  eV     1   --> A_1  D_1  S_1  
     e( 19 - 19) =     45.46188  eV     1   --> A_2  D_2  S_2  
     e( 20 - 20) =     48.18618  eV     1   --> B_2  D_4  S_4  

 **************************************************************************

 **************************************************************************

                    xk=(   0.00000,   0.21651,   0.00000  )

     Band symmetry, C_2v (mm2)  point group:

     e(  1 -  1) =    -36.18224  eV     1   --> A_1  D_1  S_1  
     e(  2 -  2) =    -10.48260  eV     1   --> B_2  D_4  S_4  
     e(  3 -  3) =    -10.31753  eV     1   --> A_1  D_1  S_1  
     e(  4 -  4) =     -9.96887  eV     1   --> B_1  D_3  S_3  
     e(  5 -  5) =      9.88642  eV     1   --> A_1  D_1  S_1  
     e(  6 -  6) =     18.00829  eV     1   --> A_1  D_1  S_1  
     e(  7 -  7) =     19.61423  eV     1   --> A_1  D_1  S_1  
     e(  8 -  8) =     19.88672  eV     1   --> B_1  D_3  S_3  
     e(  9 -  9) =     20.15102  eV     1   --> B_2  D_4  S_4  
     e( 10 - 10) =     25.64311  eV     1   --> A_2  D_2  S_2  
     e( 11 - 11) =     26.48204  eV     1   --> A_1  D_1  S_1  
     e( 12 - 12) =     27.18808  eV     1   --> B_1  D_3  S_3  
     e( 13 - 13) =     28.09998  eV     1   --> B_2  D_4  S_4  
     e( 14 - 14) =     33.19378  eV     1   --> B_2  D_4  S_4  
     e( 15 - 15) =     33.33691  eV     1   --> A_1  D_1  S_1  
     e( 16 - 16) =     34.59712  eV     1   --> A_1  D_1  S_1  
     e( 17 - 17) =     34.80037  eV     1   --> B_1  D_3  S_3  
     e( 18 - 18) =     38.34924  eV     1   --> A_1  D_1  S_1  
     e( 19 - 19) =     45.68409  eV     1   --> A_2  D_2  S_2  
     e( 20 - 20) =     48.67370  eV     1   --> B_2  D_4  S_4  

 **************************************************************************

 **************************************************************************

                    xk=(   0.00000,   0.23094,   0.00000  )

     Band symmetry, C_2v (mm2)  point group:

     e(  1 -  1) =    -36.17482  eV     1   --> A_1  D_1  S_1  
     e(  2 -  2) =    -10.47320  eV     1   --> B_2  D_4  S_4  
     e(  3 -  3) =    -10.36962  eV     1   --> A_1  D_1  S_1  
     e(  4 -  4) =     -9.98082  eV     1   --> B_1  D_3  S_3  
     e(  5 -  5) =      9.99379  eV     1   --> A_1  D_1  S_1  
     e(  6 -  6) =     17.85759  eV     1   --> A_1  D_1  S_1  
     e(  7 -  7) =     19.65452  eV     1   --> A_1  D_1  S_1  
     e(  8 -  8) =     19.93268  eV     1   --> B_1  D_3  S_3  
     e(  9 -  9) =     20.01036  eV     1   --> B_2  D_4  S_4  
     e( 10 - 10) =     25.59725  eV     1   --> A_2  D_2  S_2  
     e( 11 - 11) =     26.36464  eV     1   --> A_1  D_1  S_1  
     e( 12 - 12) =     27.11503  eV     1   --> B_1  D_3  S_3  
     e( 13 - 13) =     28.23196  eV     1   --> B_2  D_4  S_4  
     e( 14 - 14) =     33.11339  eV     1   --> B_2  D_4  S_4  
     e( 15 - 15) =     33.48149  eV     1   --> A_1  D_1  S_1  
     e( 16 - 16) =     34.92804  eV     1   --> A_1  D_1  S_1  
     e( 17 - 17) =     35.16858  eV     1   --> B_1  D_3  S_3  
     e( 18 - 18) =     38.33185  eV     1   --> A_1  D_1  S_1  
     e( 19 - 19) =     45.91832  eV     1   --> A_2  D_2  S_2  
     e( 20 - 20) =     49.16435  eV     1   --> B_2  D_4  S_4  

 **************************************************************************

 **************************************************************************

                    xk=(   0.00000,   0.24537,   0.00000  )

     Band symmetry, C_2v (mm2)  point group:

     e(  1 -  1) =    -36.16719  eV     1   --> A_1  D_1  S_1  
     e(  2 -  2) =    -10.46355  eV     1   --> B_2  D_4  S_4  
     e(  3 -  3) =    -10.42273  eV     1   --> A_1  D_1  S_1  
     e(  4 -  4) =     -9.99306  eV     1   --> B_1  D_3  S_3  
     e(  5 -  5) =     10.10589  eV     1   --> A_1  D_1  S_1  
     e(  6 -  6) =     17.70528  eV     1   --> A_1  D_1  S_1  
     e(  7 -  7) =     19.68731  eV     1   --> A_1  D_1  S_1  
     e(  8 -  8) =     19.87274  eV     1   --> B_2  D_4  S_4  
     e(  9 -  9) =     19.97742  eV     1   --> B_1  D_3  S_3  
     e( 10 - 10) =     25.55071  eV     1   --> A_2  D_2  S_2  
     e( 11 - 11) =     26.26943  eV     1   --> A_1  D_1  S_1  
     e( 12 - 12) =     27.05508  eV     1   --> B_1  D_3  S_3  
     e( 13 - 13) =     28.34174  eV     1   --> B_2  D_4  S_4  
     e( 14 - 14) =     33.06546  eV     1   --> B_2  D_4  S_4  
     e( 15 - 15) =     33.61361  eV     1   --> A_1  D_1  S_1  
     e( 16 - 16) =     35.26969  eV     1   --> A_1  D_1  S_1  
     e( 17 - 17) =     35.54312  eV     1   --> B_1  D_3  S_3  
     e( 18 - 18) =     38.30424  eV     1   --> A_1  D_1  S_1  
     e( 19 - 19) =     46.16413  eV     1   --> A_2  D_2  S_2  
     e( 20 - 20) =     49.53030  eV     1   --> A_1  D_1  S_1  

 **************************************************************************

 **************************************************************************

                    xk=(   0.00000,   0.25981,   0.00000  )

     Band symmetry, C_2v (mm2)  point group:

     e(  1 -  1) =    -36.15940  eV     1   --> A_1  D_1  S_1  
     e(  2 -  2) =    -10.47652  eV     1   --> A_1  D_1  S_1  
     e(  3 -  3) =    -10.45369  eV     1   --> B_2  D_4  S_4  
     e(  4 -  4) =    -10.00550  eV     1   --> B_1  D_3  S_3  
     e(  5 -  5) =     10.22216  eV     1   --> A_1  D_1  S_1  
     e(  6 -  6) =     17.55195  eV     1   --> A_1  D_1  S_1  
     e(  7 -  7) =     19.71109  eV     1   --> A_1  D_1  S_1  
     e(  8 -  8) =     19.73863  eV     1   --> B_2  D_4  S_4  
     e(  9 -  9) =     20.02040  eV     1   --> B_1  D_3  S_3  
     e( 10 - 10) =     25.50382  eV     1   --> A_2  D_2  S_2  
     e( 11 - 11) =     26.19813  eV     1   --> A_1  D_1  S_1  
     e( 12 - 12) =     27.00834  eV     1   --> B_1  D_3  S_3  
     e( 13 - 13) =     28.42639  eV     1   --> B_2  D_4  S_4  
     e( 14 - 14) =     33.05302  eV     1   --> B_2  D_4  S_4  
     e( 15 - 15) =     33.73317  eV     1   --> A_1  D_1  S_1  
     e( 16 - 16) =     35.61985  eV     1   --> A_1  D_1  S_1  
     e( 17 - 17) =     35.92352  eV     1   --> B_1  D_3  S_3  
     e( 18 - 18) =     38.26356  eV     1   --> A_1  D_1  S_1  
     e( 19 - 19) =     46.42091  eV     1   --> A_2  D_2  S_2  
     e( 20 - 20) =     49.42543  eV     1   --> A_1  D_1  S_1  

 **************************************************************************

 **************************************************************************

                    xk=(   0.00000,   0.27424,   0.00000  )

     Band symmetry, C_2v (mm2)  point group:

     e(  1 -  1) =    -36.15151  eV     1   --> A_1  D_1  S_1  
     e(  2 -  2) =    -10.53063  eV     1   --> A_1  D_1  S_1  
     e(  3 -  3) =    -10.44370  eV     1   --> B_2  D_4  S_4  
     e(  4 -  4) =    -10.01806  eV     1   --> B_1  D_3  S_3  
     e(  5 -  5) =     10.34269  eV     1   --> A_1  D_1  S_1  
     e(  6 -  6) =     17.39815  eV     1   --> A_1  D_1  S_1  
     e(  7 -  7) =     19.60847  eV     1   --> B_2  D_4  S_4  
     e(  8 -  8) =     19.72471  eV     1   --> A_1  D_1  S_1  
     e(  9 -  9) =     20.06113  eV     1   --> B_1  D_3  S_3  
     e( 10 - 10) =     25.45686  eV     1   --> A_2  D_2  S_2  
     e( 11 - 11) =     26.15232  eV     1   --> A_1  D_1  S_1  
     e( 12 - 12) =     26.97481  eV     1   --> B_1  D_3  S_3  
     e( 13 - 13) =     28.48422  eV     1   --> B_2  D_4  S_4  
     e( 14 - 14) =     33.07769  eV     1   --> B_2  D_4  S_4  
     e( 15 - 15) =     33.84004  eV     1   --> A_1  D_1  S_1  
     e( 16 - 16) =     35.97572  eV     1   --> A_1  D_1  S_1  
     e( 17 - 17) =     36.30946  eV     1   --> B_1  D_3  S_3  
     e( 18 - 18) =     38.21487  eV     1   --> A_1  D_1  S_1  
     e( 19 - 19) =     46.68802  eV     1   --> A_2  D_2  S_2  
     e( 20 - 20) =     49.29914  eV     1   --> A_1  D_1  S_1  

 **************************************************************************

 **************************************************************************

                    xk=(   0.00000,   0.28868,   0.00000  )

     Band symmetry, C_2v (mm2)  point group:

     e(  1 -  1) =    -36.14355  eV     1   --> A_1  D_1  S_1  
     e(  2 -  2) =    -10.58474  eV     1   --> A_1  D_1  S_1  
     e(  3 -  3) =    -10.43362  eV     1   --> B_2  D_4  S_4  
     e(  4 -  4) =    -10.03067  eV     1   --> B_1  D_3  S_3  
     e(  5 -  5) =     10.46693  eV     1   --> A_1  D_1  S_1  
     e(  6 -  6) =     17.24434  eV     1   --> A_1  D_1  S_1  
     e(  7 -  7) =     19.48263  eV     1   --> B_2  D_4  S_4  
     e(  8 -  8) =     19.72725  eV     1   --> A_1  D_1  S_1  
     e(  9 -  9) =     20.09920  eV     1   --> B_1  D_3  S_3  
     e( 10 - 10) =     25.41013  eV     1   --> A_2  D_2  S_2  
     e( 11 - 11) =     26.13302  eV     1   --> A_1  D_1  S_1  
     e( 12 - 12) =     26.95433  eV     1   --> B_1  D_3  S_3  
     e( 13 - 13) =     28.51511  eV     1   --> B_2  D_4  S_4  
     e( 14 - 14) =     33.13943  eV     1   --> B_2  D_4  S_4  
     e( 15 - 15) =     33.93404  eV     1   --> A_1  D_1  S_1  
     e( 16 - 16) =     36.33304  eV     1   --> A_1  D_1  S_1  
     e( 17 - 17) =     36.70045  eV     1   --> B_1  D_3  S_3  
     e( 18 - 18) =     38.15822  eV     1   --> A_1  D_1  S_1  
     e( 19 - 19) =     46.96480  eV     1   --> A_2  D_2  S_2  
     e( 20 - 20) =     49.15257  eV     1   --> A_1  D_1  S_1  

 **************************************************************************

 **************************************************************************

                    xk=(   0.00000,   0.30311,   0.00000  )

     Band symmetry, C_2v (mm2)  point group:

     e(  1 -  1) =    -36.13558  eV     1   --> A_1  D_1  S_1  
     e(  2 -  2) =    -10.63852  eV     1   --> A_1  D_1  S_1  
     e(  3 -  3) =    -10.42352  eV     1   --> B_2  D_4  S_4  
     e(  4 -  4) =    -10.04325  eV     1   --> B_1  D_3  S_3  
     e(  5 -  5) =     10.59450  eV     1   --> A_1  D_1  S_1  
     e(  6 -  6) =     17.09091  eV     1   --> A_1  D_1  S_1  
     e(  7 -  7) =     19.36142  eV     1   --> B_2  D_4  S_4  
     e(  8 -  8) =     19.71827  eV     1   --> A_1  D_1  S_1  
     e(  9 -  9) =     20.13426  eV     1   --> B_1  D_3  S_3  
     e( 10 - 10) =     25.36391  eV     1   --> A_2  D_2  S_2  
     e( 11 - 11) =     26.14082  eV     1   --> A_1  D_1  S_1  
     e( 12 - 12) =     26.94659  eV     1   --> B_1  D_3  S_3  
     e( 13 - 13) =     28.52053  eV     1   --> B_2  D_4  S_4  
     e( 14 - 14) =     33.23648  eV     1   --> B_2  D_4  S_4  
     e( 15 - 15) =     34.01486  eV     1   --> A_1  D_1  S_1  
     e( 16 - 16) =     36.68392  eV     1   --> A_1  D_1  S_1  
     e( 17 - 17) =     37.09599  eV     1   --> B_1  D_3  S_3  
     e( 18 - 18) =     38.10007  eV     1   --> A_1  D_1  S_1  
     e( 19 - 19) =     47.25050  eV     1   --> A_2  D_2  S_2  
     e( 20 - 20) =     48.98892  eV     1   --> A_1  D_1  S_1  

 **************************************************************************

 **************************************************************************

                    xk=(   0.00000,   0.31754,   0.00000  )

     Band symmetry, C_2v (mm2)  point group:

     e(  1 -  1) =    -36.12764  eV     1   --> A_1  D_1  S_1  
     e(  2 -  2) =    -10.69164  eV     1   --> A_1  D_1  S_1  
     e(  3 -  3) =    -10.41347  eV     1   --> B_2  D_4  S_4  
     e(  4 -  4) =    -10.05572  eV     1   --> B_1  D_3  S_3  
     e(  5 -  5) =     10.72505  eV     1   --> A_1  D_1  S_1  
     e(  6 -  6) =     16.93821  eV     1   --> A_1  D_1  S_1  
     e(  7 -  7) =     19.24513  eV     1   --> B_2  D_4  S_4  
     e(  8 -  8) =     19.69778  eV     1   --> A_1  D_1  S_1  
     e(  9 -  9) =     20.16607  eV     1   --> B_1  D_3  S_3  
     e( 10 - 10) =     25.31846  eV     1   --> A_2  D_2  S_2  
     e( 11 - 11) =     26.17578  eV     1   --> A_1  D_1  S_1  
     e( 12 - 12) =     26.95110  eV     1   --> B_1  D_3  S_3  
     e( 13 - 13) =     28.50327  eV     1   --> B_2  D_4  S_4  
     e( 14 - 14) =     33.36565  eV     1   --> B_2  D_4  S_4  
     e( 15 - 15) =     34.08203  eV     1   --> A_1  D_1  S_1  
     e( 16 - 16) =     37.00970  eV     1   --> A_1  D_1  S_1  
     e( 17 - 17) =     37.49554  eV     1   --> B_1  D_3  S_3  
     e( 18 - 18) =     38.05823  eV     1   --> A_1  D_1  S_1  
     e( 19 - 19) =     47.54435  eV     1   --> A_2  D_2  S_2  
     e( 20 - 20) =     48.81190  eV     1   --> A_1  D_1  S_1  

 **************************************************************************

 **************************************************************************

                    xk=(   0.00000,   0.33198,   0.00000  )

     Band symmetry, C_2v (mm2)  point group:

     e(  1 -  1) =    -36.11979  eV     1   --> A_1  D_1  S_1  
     e(  2 -  2) =    -10.74379  eV     1   --> A_1  D_1  S_1  
     e(  3 -  3) =    -10.40352  eV     1   --> B_2  D_4  S_4  
     e(  4 -  4) =    -10.06801  eV     1   --> B_1  D_3  S_3  
     e(  5 -  5) =     10.85829  eV     1   --> A_1  D_1  S_1  
     e(  6 -  6) =     16.78698  eV     1   --> A_1  D_1  S_1  
     e(  7 -  7) =     19.13406  eV     1   --> B_2  D_4  S_4  
     e(  8 -  8) =     19.66628  eV     1   --> A_1  D_1  S_1  
     e(  9 -  9) =     20.19451  eV     1   --> B_1  D_3  S_3  
     e( 10 - 10) =     25.27404  eV     1   --> A_2  D_2  S_2  
     e( 11 - 11) =     26.23768  eV     1   --> A_1  D_1  S_1  
     e( 12 - 12) =     26.96722  eV     1   --> B_1  D_3  S_3  
     e( 13 - 13) =     28.46821  eV     1   --> B_2  D_4  S_4  
     e( 14 - 14) =     33.52336  eV     1   --> B_2  D_4  S_4  
     e( 15 - 15) =     34.13544  eV     1   --> A_1  D_1  S_1  
     e( 16 - 16) =     37.26217  eV     1   --> A_1  D_1  S_1  
     e( 17 - 17) =     37.89854  eV     1   --> B_1  D_3  S_3  
     e( 18 - 18) =     38.08173  eV     1   --> A_1  D_1  S_1  
     e( 19 - 19) =     47.84574  eV     1   --> A_2  D_2  S_2  
     e( 20 - 20) =     48.37538  eV     1   --> B_1  D_3  S_3  

 **************************************************************************

 **************************************************************************

                    xk=(   0.00000,   0.34641,   0.00000  )

     Band symmetry, C_2v (mm2)  point group:

     e(  1 -  1) =    -36.11207  eV     1   --> A_1  D_1  S_1  
     e(  2 -  2) =    -10.79468  eV     1   --> A_1  D_1  S_1  
     e(  3 -  3) =    -10.39374  eV     1   --> B_2  D_4  S_4  
     e(  4 -  4) =    -10.08004  eV     1   --> B_1  D_3  S_3  
     e(  5 -  5) =     10.99230  eV     1   --> A_1  D_1  S_1  
     e(  6 -  6) =     16.63667  eV     1   --> A_1  D_1  S_1  
     e(  7 -  7) =     19.02829  eV     1   --> B_2  D_4  S_4  
     e(  8 -  8) =     19.62468  eV     1   --> A_1  D_1  S_1  
     e(  9 -  9) =     20.21944  eV     1   --> B_1  D_3  S_3  
     e( 10 - 10) =     25.23089  eV     1   --> A_2  D_2  S_2  
     e( 11 - 11) =     26.32474  eV     1   --> A_1  D_1  S_1  
     e( 12 - 12) =     26.99406  eV     1   --> B_1  D_3  S_3  
     e( 13 - 13) =     28.41682  eV     1   --> B_2  D_4  S_4  
     e( 14 - 14) =     33.70367  eV     1   --> B_2  D_4  S_4  
     e( 15 - 15) =     34.17369  eV     1   --> A_1  D_1  S_1  
     e( 16 - 16) =     37.36571  eV     1   --> A_1  D_1  S_1  
     e( 17 - 17) =     38.24476  eV     1   --> A_1  D_1  S_1  
     e( 18 - 18) =     38.30408  eV     1   --> B_1  D_3  S_3  
     e( 19 - 19) =     47.91426  eV     1   --> B_1  D_3  S_3  
     e( 20 - 20) =     48.15319  eV     1   --> A_2  D_2  S_2  

 **************************************************************************

 **************************************************************************

                    xk=(   0.00000,   0.36084,   0.00000  )

     Band symmetry, C_2v (mm2)  point group:

     e(  1 -  1) =    -36.10454  eV     1   --> A_1  D_1  S_1  
     e(  2 -  2) =    -10.84400  eV     1   --> A_1  D_1  S_1  
     e(  3 -  3) =    -10.38420  eV     1   --> B_2  D_4  S_4  
     e(  4 -  4) =    -10.09174  eV     1   --> B_1  D_3  S_3  
     e(  5 -  5) =     11.12921  eV     1   --> A_1  D_1  S_1  
     e(  6 -  6) =     16.48772  eV     1   --> A_1  D_1  S_1  
     e(  7 -  7) =     18.92811  eV     1   --> B_2  D_4  S_4  
     e(  8 -  8) =     19.57428  eV     1   --> A_1  D_1  S_1  
     e(  9 -  9) =     20.24094  eV     1   --> B_1  D_3  S_3  
     e( 10 - 10) =     25.18924  eV     1   --> A_2  D_2  S_2  
     e( 11 - 11) =     26.43616  eV     1   --> A_1  D_1  S_1  
     e( 12 - 12) =     27.03070  eV     1   --> B_1  D_3  S_3  
     e( 13 - 13) =     28.35419  eV     1   --> B_2  D_4  S_4  
     e( 14 - 14) =     33.90256  eV     1   --> B_2  D_4  S_4  
     e( 15 - 15) =     34.19450  eV     1   --> A_1  D_1  S_1  
     e( 16 - 16) =     37.33454  eV     1   --> A_1  D_1  S_1  
     e( 17 - 17) =     38.53549  eV     1   --> A_1  D_1  S_1  
     e( 18 - 18) =     38.71158  eV     1   --> B_1  D_3  S_3  
     e( 19 - 19) =     47.47084  eV     1   --> B_1  D_3  S_3  
     e( 20 - 20) =     48.22734  eV     1   --> A_1  D_1  S_1  

 **************************************************************************

 **************************************************************************

                    xk=(   0.00000,   0.37528,   0.00000  )

     Band symmetry, C_2v (mm2)  point group:

     e(  1 -  1) =    -36.09724  eV     1   --> A_1  D_1  S_1  
     e(  2 -  2) =    -10.89149  eV     1   --> A_1  D_1  S_1  
     e(  3 -  3) =    -10.37494  eV     1   --> B_2  D_4  S_4  
     e(  4 -  4) =    -10.10304  eV     1   --> B_1  D_3  S_3  
     e(  5 -  5) =     11.26736  eV     1   --> A_1  D_1  S_1  
     e(  6 -  6) =     16.34050  eV     1   --> A_1  D_1  S_1  
     e(  7 -  7) =     18.83367  eV     1   --> B_2  D_4  S_4  
     e(  8 -  8) =     19.51667  eV     1   --> A_1  D_1  S_1  
     e(  9 -  9) =     20.25912  eV     1   --> B_1  D_3  S_3  
     e( 10 - 10) =     25.14930  eV     1   --> A_2  D_2  S_2  
     e( 11 - 11) =     26.56988  eV     1   --> A_1  D_1  S_1  
     e( 12 - 12) =     27.07594  eV     1   --> B_1  D_3  S_3  
     e( 13 - 13) =     28.28390  eV     1   --> B_2  D_4  S_4  
     e( 14 - 14) =     34.11547  eV     1   --> B_2  D_4  S_4  
     e( 15 - 15) =     34.19742  eV     1   --> A_1  D_1  S_1  
     e( 16 - 16) =     37.24027  eV     1   --> A_1  D_1  S_1  
     e( 17 - 17) =     38.88396  eV     1   --> A_1  D_1  S_1  
     e( 18 - 18) =     39.11999  eV     1   --> B_1  D_3  S_3  
     e( 19 - 19) =     47.04608  eV     1   --> B_1  D_3  S_3  
     e( 20 - 20) =     48.02646  eV     1   --> A_1  D_1  S_1  

 **************************************************************************

 **************************************************************************

                    xk=(   0.00000,   0.38971,   0.00000  )

     Band symmetry, C_2v (mm2)  point group:

     e(  1 -  1) =    -36.09022  eV     1   --> A_1  D_1  S_1  
     e(  2 -  2) =    -10.93689  eV     1   --> A_1  D_1  S_1  
     e(  3 -  3) =    -10.36603  eV     1   --> B_2  D_4  S_4  
     e(  4 -  4) =    -10.11387  eV     1   --> B_1  D_3  S_3  
     e(  5 -  5) =     11.40576  eV     1   --> A_1  D_1  S_1  
     e(  6 -  6) =     16.19525  eV     1   --> A_1  D_1  S_1  
     e(  7 -  7) =     18.74512  eV     1   --> B_2  D_4  S_4  
     e(  8 -  8) =     19.45353  eV     1   --> A_1  D_1  S_1  
     e(  9 -  9) =     20.27404  eV     1   --> B_1  D_3  S_3  
     e( 10 - 10) =     25.11127  eV     1   --> A_2  D_2  S_2  
     e( 11 - 11) =     26.72307  eV     1   --> A_1  D_1  S_1  
     e( 12 - 12) =     27.12845  eV     1   --> B_1  D_3  S_3  
     e( 13 - 13) =     28.20899  eV     1   --> B_2  D_4  S_4  
     e( 14 - 14) =     34.18077  eV     1   --> A_1  D_1  S_1  
     e( 15 - 15) =     34.33781  eV     1   --> B_2  D_4  S_4  
     e( 16 - 16) =     37.12106  eV     1   --> A_1  D_1  S_1  
     e( 17 - 17) =     39.25170  eV     1   --> A_1  D_1  S_1  
     e( 18 - 18) =     39.52737  eV     1   --> B_1  D_3  S_3  
     e( 19 - 19) =     46.64110  eV     1   --> B_1  D_3  S_3  
     e( 20 - 20) =     47.82370  eV     1   --> A_1  D_1  S_1  

 **************************************************************************

 **************************************************************************

                    xk=(   0.00000,   0.40415,   0.00000  )

     Band symmetry, C_2v (mm2)  point group:

     e(  1 -  1) =    -36.08352  eV     1   --> A_1  D_1  S_1  
     e(  2 -  2) =    -10.97994  eV     1   --> A_1  D_1  S_1  
     e(  3 -  3) =    -10.35752  eV     1   --> B_2  D_4  S_4  
     e(  4 -  4) =    -10.12418  eV     1   --> B_1  D_3  S_3  
     e(  5 -  5) =     11.54444  eV     1   --> A_1  D_1  S_1  
     e(  6 -  6) =     16.05284  eV     1   --> A_1  D_1  S_1  
     e(  7 -  7) =     18.66286  eV     1   --> B_2  D_4  S_4  
     e(  8 -  8) =     19.38681  eV     1   --> A_1  D_1  S_1  
     e(  9 -  9) =     20.28625  eV     1   --> B_1  D_3  S_3  
     e( 10 - 10) =     25.07533  eV     1   --> A_2  D_2  S_2  
     e( 11 - 11) =     26.89476  eV     1   --> A_1  D_1  S_1  
     e( 12 - 12) =     27.18672  eV     1   --> B_1  D_3  S_3  
     e( 13 - 13) =     28.13251  eV     1   --> B_2  D_4  S_4  
     e( 14 - 14) =     34.14266  eV     1   --> A_1  D_1  S_1  
     e( 15 - 15) =     34.56760  eV     1   --> B_2  D_4  S_4  
     e( 16 - 16) =     36.99331  eV     1   --> A_1  D_1  S_1  
     e( 17 - 17) =     39.63013  eV     1   --> A_1  D_1  S_1  
     e( 18 - 18) =     39.93336  eV     1   --> B_1  D_3  S_3  
     e( 19 - 19) =     46.25696  eV     1   --> B_1  D_3  S_3  
     e( 20 - 20) =     47.61848  eV     1   --> A_1  D_1  S_1  

 **************************************************************************

 **************************************************************************

                    xk=(   0.00000,   0.41858,   0.00000  )

     Band symmetry, C_2v (mm2)  point group:

     e(  1 -  1) =    -36.07718  eV     1   --> A_1  D_1  S_1  
     e(  2 -  2) =    -11.02041  eV     1   --> A_1  D_1  S_1  
     e(  3 -  3) =    -10.34948  eV     1   --> B_2  D_4  S_4  
     e(  4 -  4) =    -10.13389  eV     1   --> B_1  D_3  S_3  
     e(  5 -  5) =     11.68269  eV     1   --> A_1  D_1  S_1  
     e(  6 -  6) =     15.91251  eV     1   --> A_1  D_1  S_1  
     e(  7 -  7) =     18.58654  eV     1   --> B_2  D_4  S_4  
     e(  8 -  8) =     19.31817  eV     1   --> A_1  D_1  S_1  
     e(  9 -  9) =     20.29579  eV     1   --> B_1  D_3  S_3  
     e( 10 - 10) =     25.04165  eV     1   --> A_2  D_2  S_2  
     e( 11 - 11) =     27.08115  eV     1   --> A_1  D_1  S_1  
     e( 12 - 12) =     27.24930  eV     1   --> B_1  D_3  S_3  
     e( 13 - 13) =     28.05613  eV     1   --> B_2  D_4  S_4  
     e( 14 - 14) =     34.08207  eV     1   --> A_1  D_1  S_1  
     e( 15 - 15) =     34.79744  eV     1   --> B_2  D_4  S_4  
     e( 16 - 16) =     36.86676  eV     1   --> A_1  D_1  S_1  
     e( 17 - 17) =     40.01023  eV     1   --> A_1  D_1  S_1  
     e( 18 - 18) =     40.33638  eV     1   --> B_1  D_3  S_3  
     e( 19 - 19) =     45.89597  eV     1   --> B_1  D_3  S_3  
     e( 20 - 20) =     47.41265  eV     1   --> A_1  D_1  S_1  

 **************************************************************************

 **************************************************************************

                    xk=(   0.00000,   0.43301,   0.00000  )

     Band symmetry, C_2v (mm2)  point group:

     e(  1 -  1) =    -36.07124  eV     1   --> A_1  D_1  S_1  
     e(  2 -  2) =    -11.05810  eV     1   --> A_1  D_1  S_1  
     e(  3 -  3) =    -10.34194  eV     1   --> B_2  D_4  S_4  
     e(  4 -  4) =    -10.14295  eV     1   --> B_1  D_3  S_3  
     e(  5 -  5) =     11.81952  eV     1   --> A_1  D_1  S_1  
     e(  6 -  6) =     15.77550  eV     1   --> A_1  D_1  S_1  
     e(  7 -  7) =     18.51650  eV     1   --> B_2  D_4  S_4  
     e(  8 -  8) =     19.24944  eV     1   --> A_1  D_1  S_1  
     e(  9 -  9) =     20.30304  eV     1   --> B_1  D_3  S_3  
     e( 10 - 10) =     25.01039  eV     1   --> A_2  D_2  S_2  
     e( 11 - 11) =     27.27957  eV     1   --> A_1  D_1  S_1  
     e( 12 - 12) =     27.31449  eV     1   --> B_1  D_3  S_3  
     e( 13 - 13) =     27.98191  eV     1   --> B_2  D_4  S_4  
     e( 14 - 14) =     33.99836  eV     1   --> A_1  D_1  S_1  
     e( 15 - 15) =     35.02527  eV     1   --> B_2  D_4  S_4  
     e( 16 - 16) =     36.74783  eV     1   --> A_1  D_1  S_1  
     e( 17 - 17) =     40.38872  eV     1   --> A_1  D_1  S_1  
     e( 18 - 18) =     40.73396  eV     1   --> B_1  D_3  S_3  
     e( 19 - 19) =     45.55891  eV     1   --> B_1  D_3  S_3  
     e( 20 - 20) =     47.20704  eV     1   --> A_1  D_1  S_1  

 **************************************************************************

 **************************************************************************

                    xk=(   0.00000,   0.44745,   0.00000  )

     Band symmetry, C_2v (mm2)  point group:

     e(  1 -  1) =    -36.06575  eV     1   --> A_1  D_1  S_1  
     e(  2 -  2) =    -11.09281  eV     1   --> A_1  D_1  S_1  
     e(  3 -  3) =    -10.33497  eV     1   --> B_2  D_4  S_4  
     e(  4 -  4) =    -10.15132  eV     1   --> B_1  D_3  S_3  
     e(  5 -  5) =     11.95379  eV     1   --> A_1  D_1  S_1  
     e(  6 -  6) =     15.64209  eV     1   --> A_1  D_1  S_1  
     e(  7 -  7) =     18.45272  eV     1   --> B_2  D_4  S_4  
     e(  8 -  8) =     19.18216  eV     1   --> A_1  D_1  S_1  
     e(  9 -  9) =     20.30834  eV     1   --> B_1  D_3  S_3  
     e( 10 - 10) =     24.98169  eV     1   --> A_2  D_2  S_2  
     e( 11 - 11) =     27.38055  eV     1   --> B_1  D_3  S_3  
     e( 12 - 12) =     27.48647  eV     1   --> A_1  D_1  S_1  
     e( 13 - 13) =     27.91115  eV     1   --> B_2  D_4  S_4  
     e( 14 - 14) =     33.89189  eV     1   --> A_1  D_1  S_1  
     e( 15 - 15) =     35.24672  eV     1   --> B_2  D_4  S_4  
     e( 16 - 16) =     36.63944  eV     1   --> A_1  D_1  S_1  
     e( 17 - 17) =     40.75904  eV     1   --> A_1  D_1  S_1  
     e( 18 - 18) =     41.12351  eV     1   --> B_1  D_3  S_3  
     e( 19 - 19) =     45.24710  eV     1   --> B_1  D_3  S_3  
     e( 20 - 20) =     46.99773  eV     1   --> A_1  D_1  S_1  

 **************************************************************************

 **************************************************************************

                    xk=(   0.00000,   0.46188,   0.00000  )

     Band symmetry, C_2v (mm2)  point group:

     e(  1 -  1) =    -36.06075  eV     1   --> A_1  D_1  S_1  
     e(  2 -  2) =    -11.12435  eV     1   --> A_1  D_1  S_1  
     e(  3 -  3) =    -10.32860  eV     1   --> B_2  D_4  S_4  
     e(  4 -  4) =    -10.15894  eV     1   --> B_1  D_3  S_3  
     e(  5 -  5) =     12.08389  eV     1   --> A_1  D_1  S_1  
     e(  6 -  6) =     15.51336  eV     1   --> A_1  D_1  S_1  
     e(  7 -  7) =     18.39550  eV     1   --> B_2  D_4  S_4  
     e(  8 -  8) =     19.11798  eV     1   --> A_1  D_1  S_1  
     e(  9 -  9) =     20.31148  eV     1   --> B_1  D_3  S_3  
     e( 10 - 10) =     24.95568  eV     1   --> A_2  D_2  S_2  
     e( 11 - 11) =     27.44564  eV     1   --> B_1  D_3  S_3  
     e( 12 - 12) =     27.69848  eV     1   --> A_1  D_1  S_1  
     e( 13 - 13) =     27.84407  eV     1   --> B_2  D_4  S_4  
     e( 14 - 14) =     33.76458  eV     1   --> A_1  D_1  S_1  
     e( 15 - 15) =     35.45951  eV     1   --> B_2  D_4  S_4  
     e( 16 - 16) =     36.54470  eV     1   --> A_1  D_1  S_1  
     e( 17 - 17) =     41.12144  eV     1   --> A_1  D_1  S_1  
     e( 18 - 18) =     41.50185  eV     1   --> B_1  D_3  S_3  
     e( 19 - 19) =     44.96061  eV     1   --> B_1  D_3  S_3  
     e( 20 - 20) =     46.78196  eV     1   --> A_1  D_1  S_1  

 **************************************************************************

 **************************************************************************

                    xk=(   0.00000,   0.47631,   0.00000  )

     Band symmetry, C_2v (mm2)  point group:

     e(  1 -  1) =    -36.05625  eV     1   --> A_1  D_1  S_1  
     e(  2 -  2) =    -11.15256  eV     1   --> A_1  D_1  S_1  
     e(  3 -  3) =    -10.32288  eV     1   --> B_2  D_4  S_4  
     e(  4 -  4) =    -10.16577  eV     1   --> B_1  D_3  S_3  
     e(  5 -  5) =     12.20920  eV     1   --> A_1  D_1  S_1  
     e(  6 -  6) =     15.39054  eV     1   --> A_1  D_1  S_1  
     e(  7 -  7) =     18.34485  eV     1   --> B_2  D_4  S_4  
     e(  8 -  8) =     19.05822  eV     1   --> A_1  D_1  S_1  
     e(  9 -  9) =     20.31384  eV     1   --> B_1  D_3  S_3  
     e( 10 - 10) =     24.93246  eV     1   --> A_2  D_2  S_2  
     e( 11 - 11) =     27.50825  eV     1   --> B_1  D_3  S_3  
     e( 12 - 12) =     27.78412  eV     1   --> B_2  D_4  S_4  
     e( 13 - 13) =     27.91121  eV     1   --> A_1  D_1  S_1  
     e( 14 - 14) =     33.62144  eV     1   --> A_1  D_1  S_1  
     e( 15 - 15) =     35.65948  eV     1   --> B_2  D_4  S_4  
     e( 16 - 16) =     36.46481  eV     1   --> A_1  D_1  S_1  
     e( 17 - 17) =     41.47491  eV     1   --> A_1  D_1  S_1  
     e( 18 - 18) =     41.86505  eV     1   --> B_1  D_3  S_3  
     e( 19 - 19) =     44.70286  eV     1   --> B_1  D_3  S_3  
     e( 20 - 20) =     46.56963  eV     1   --> A_1  D_1  S_1  

 **************************************************************************

 **************************************************************************

                    xk=(   0.00000,   0.49075,   0.00000  )

     Band symmetry, C_2v (mm2)  point group:

     e(  1 -  1) =    -36.05228  eV     1   --> A_1  D_1  S_1  
     e(  2 -  2) =    -11.17731  eV     1   --> A_1  D_1  S_1  
     e(  3 -  3) =    -10.31785  eV     1   --> B_2  D_4  S_4  
     e(  4 -  4) =    -10.17176  eV     1   --> B_1  D_3  S_3  
     e(  5 -  5) =     12.32735  eV     1   --> A_1  D_1  S_1  
     e(  6 -  6) =     15.27522  eV     1   --> A_1  D_1  S_1  
     e(  7 -  7) =     18.30083  eV     1   --> B_2  D_4  S_4  
     e(  8 -  8) =     19.00406  eV     1   --> A_1  D_1  S_1  
     e(  9 -  9) =     20.31522  eV     1   --> B_1  D_3  S_3  
     e( 10 - 10) =     24.91214  eV     1   --> A_2  D_2  S_2  
     e( 11 - 11) =     27.56658  eV     1   --> B_1  D_3  S_3  
     e( 12 - 12) =     27.73080  eV     1   --> B_2  D_4  S_4  
     e( 13 - 13) =     28.11966  eV     1   --> A_1  D_1  S_1  
     e( 14 - 14) =     33.46796  eV     1   --> A_1  D_1  S_1  
     e( 15 - 15) =     35.84285  eV     1   --> B_2  D_4  S_4  
     e( 16 - 16) =     36.39945  eV     1   --> A_1  D_1  S_1  
     e( 17 - 17) =     41.81368  eV     1   --> A_1  D_1  S_1  
     e( 18 - 18) =     42.20835  eV     1   --> B_1  D_3  S_3  
     e( 19 - 19) =     44.47349  eV     1   --> B_1  D_3  S_3  
     e( 20 - 20) =     46.35768  eV     1   --> A_1  D_1  S_1  

 **************************************************************************

 **************************************************************************

                    xk=(   0.00000,   0.50518,   0.00000  )

     Band symmetry, C_2v (mm2)  point group:

     e(  1 -  1) =    -36.04888  eV     1   --> A_1  D_1  S_1  
     e(  2 -  2) =    -11.19846  eV     1   --> A_1  D_1  S_1  
     e(  3 -  3) =    -10.31353  eV     1   --> B_2  D_4  S_4  
     e(  4 -  4) =    -10.17689  eV     1   --> B_1  D_3  S_3  
     e(  5 -  5) =     12.43598  eV     1   --> A_1  D_1  S_1  
     e(  6 -  6) =     15.16948  eV     1   --> A_1  D_1  S_1  
     e(  7 -  7) =     18.26348  eV     1   --> B_2  D_4  S_4  
     e(  8 -  8) =     18.95652  eV     1   --> A_1  D_1  S_1  
     e(  9 -  9) =     20.31589  eV     1   --> B_1  D_3  S_3  
     e( 10 - 10) =     24.89480  eV     1   --> A_2  D_2  S_2  
     e( 11 - 11) =     27.61902  eV     1   --> B_1  D_3  S_3  
     e( 12 - 12) =     27.68474  eV     1   --> B_2  D_4  S_4  
     e( 13 - 13) =     28.31782  eV     1   --> A_1  D_1  S_1  
     e( 14 - 14) =     33.31179  eV     1   --> A_1  D_1  S_1  
     e( 15 - 15) =     36.00596  eV     1   --> B_2  D_4  S_4  
     e( 16 - 16) =     36.34761  eV     1   --> A_1  D_1  S_1  
     e( 17 - 17) =     42.13290  eV     1   --> A_1  D_1  S_1  
     e( 18 - 18) =     42.52612  eV     1   --> B_1  D_3  S_3  
     e( 19 - 19) =     44.27282  eV     1   --> B_1  D_3  S_3  
     e( 20 - 20) =     46.14903  eV     1   --> A_1  D_1  S_1  

 **************************************************************************

 **************************************************************************

                    xk=(   0.00000,   0.51962,   0.00000  )

     Band symmetry, C_2v (mm2)  point group:

     e(  1 -  1) =    -36.04607  eV     1   --> A_1  D_1  S_1  
     e(  2 -  2) =    -11.21591  eV     1   --> A_1  D_1  S_1  
     e(  3 -  3) =    -10.30995  eV     1   --> B_2  D_4  S_4  
     e(  4 -  4) =    -10.18113  eV     1   --> B_1  D_3  S_3  
     e(  5 -  5) =     12.53222  eV     1   --> A_1  D_1  S_1  
     e(  6 -  6) =     15.07596  eV     1   --> A_1  D_1  S_1  
     e(  7 -  7) =     18.23285  eV     1   --> B_2  D_4  S_4  
     e(  8 -  8) =     18.91647  eV     1   --> A_1  D_1  S_1  
     e(  9 -  9) =     20.31610  eV     1   --> B_1  D_3  S_3  
     e( 10 - 10) =     24.88052  eV     1   --> A_2  D_2  S_2  
     e( 11 - 11) =     27.64644  eV     1   --> B_2  D_4  S_4  
     e( 12 - 12) =     27.66413  eV     1   --> B_1  D_3  S_3  
     e( 13 - 13) =     28.49856  eV     1   --> A_1  D_1  S_1  
     e( 14 - 14) =     33.16203  eV     1   --> A_1  D_1  S_1  
     e( 15 - 15) =     36.14530  eV     1   --> B_2  D_4  S_4  
     e( 16 - 16) =     36.30786  eV     1   --> A_1  D_1  S_1  
     e( 17 - 17) =     42.42579  eV     1   --> A_1  D_1  S_1  
     e( 18 - 18) =     42.81216  eV     1   --> B_1  D_3  S_3  
     e( 19 - 19) =     44.10030  eV     1   --> B_1  D_3  S_3  
     e( 20 - 20) =     45.94885  eV     1   --> A_1  D_1  S_1  

 **************************************************************************

 **************************************************************************

                    xk=(   0.00000,   0.53405,   0.00000  )

     Band symmetry, C_2v (mm2)  point group:

     e(  1 -  1) =    -36.04386  eV     1   --> A_1  D_1  S_1  
     e(  2 -  2) =    -11.22956  eV     1   --> A_1  D_1  S_1  
     e(  3 -  3) =    -10.30715  eV     1   --> B_2  D_4  S_4  
     e(  4 -  4) =    -10.18446  eV     1   --> B_1  D_3  S_3  
     e(  5 -  5) =     12.61276  eV     1   --> A_1  D_1  S_1  
     e(  6 -  6) =     14.99849  eV     1   --> A_1  D_1  S_1  
     e(  7 -  7) =     18.20907  eV     1   --> B_2  D_4  S_4  
     e(  8 -  8) =     18.88465  eV     1   --> A_1  D_1  S_1  
     e(  9 -  9) =     20.31608  eV     1   --> B_1  D_3  S_3  
     e( 10 - 10) =     24.86935  eV     1   --> A_2  D_2  S_2  
     e( 11 - 11) =     27.61631  eV     1   --> B_2  D_4  S_4  
     e( 12 - 12) =     27.70062  eV     1   --> B_1  D_3  S_3  
     e( 13 - 13) =     28.65409  eV     1   --> A_1  D_1  S_1  
     e( 14 - 14) =     33.02913  eV     1   --> A_1  D_1  S_1  
     e( 15 - 15) =     36.25798  eV     1   --> B_2  D_4  S_4  
     e( 16 - 16) =     36.27906  eV     1   --> A_1  D_1  S_1  
     e( 17 - 17) =     42.68450  eV     1   --> A_1  D_1  S_1  
     e( 18 - 18) =     43.06081  eV     1   --> B_1  D_3  S_3  
     e( 19 - 19) =     43.95404  eV     1   --> B_1  D_3  S_3  
     e( 20 - 20) =     45.76575  eV     1   --> A_1  D_1  S_1  

 **************************************************************************

 **************************************************************************

                    xk=(   0.00000,   0.54848,   0.00000  )

     Band symmetry, C_2v (mm2)  point group:

     e(  1 -  1) =    -36.04228  eV     1   --> A_1  D_1  S_1  
     e(  2 -  2) =    -11.23937  eV     1   --> A_1  D_1  S_1  
     e(  3 -  3) =    -10.30513  eV     1   --> B_2  D_4  S_4  
     e(  4 -  4) =    -10.18684  eV     1   --> B_1  D_3  S_3  
     e(  5 -  5) =     12.67333  eV     1   --> A_1  D_1  S_1  
     e(  6 -  6) =     14.93868  eV     1   --> A_1  D_1  S_1  
     e(  7 -  7) =     18.19200  eV     1   --> B_2  D_4  S_4  
     e(  8 -  8) =     18.86148  eV     1   --> A_1  D_1  S_1  
     e(  9 -  9) =     20.31565  eV     1   --> B_1  D_3  S_3  
     e( 10 - 10) =     24.86134  eV     1   --> A_2  D_2  S_2  
     e( 11 - 11) =     27.59456  eV     1   --> B_2  D_4  S_4  
     e( 12 - 12) =     27.72730  eV     1   --> B_1  D_3  S_3  
     e( 13 - 13) =     28.77382  eV     1   --> A_1  D_1  S_1  
     e( 14 - 14) =     32.92343  eV     1   --> A_1  D_1  S_1  
     e( 15 - 15) =     36.25918  eV     1   --> A_1  D_1  S_1  
     e( 16 - 16) =     36.34036  eV     1   --> B_2  D_4  S_4  
     e( 17 - 17) =     42.89014  eV     1   --> A_1  D_1  S_1  
     e( 18 - 18) =     43.26113  eV     1   --> B_1  D_3  S_3  
     e( 19 - 19) =     43.83011  eV     1   --> B_1  D_3  S_3  
     e( 20 - 20) =     45.61273  eV     1   --> A_1  D_1  S_1  

 **************************************************************************

 **************************************************************************

                    xk=(   0.00000,   0.56292,   0.00000  )

     Band symmetry, C_2v (mm2)  point group:

     e(  1 -  1) =    -36.04132  eV     1   --> A_1  D_1  S_1  
     e(  2 -  2) =    -11.24528  eV     1   --> A_1  D_1  S_1  
     e(  3 -  3) =    -10.30392  eV     1   --> B_2  D_4  S_4  
     e(  4 -  4) =    -10.18828  eV     1   --> B_1  D_3  S_3  
     e(  5 -  5) =     12.71175  eV     1   --> A_1  D_1  S_1  
     e(  6 -  6) =     14.90134  eV     1   --> A_1  D_1  S_1  
     e(  7 -  7) =     18.18175  eV     1   --> B_2  D_4  S_4  
     e(  8 -  8) =     18.84744  eV     1   --> A_1  D_1  S_1  
     e(  9 -  9) =     20.31550  eV     1   --> B_1  D_3  S_3  
     e( 10 - 10) =     24.85653  eV     1   --> A_2  D_2  S_2  
     e( 11 - 11) =     27.58144  eV     1   --> B_2  D_4  S_4  
     e( 12 - 12) =     27.74374  eV     1   --> B_1  D_3  S_3  
     e( 13 - 13) =     28.85024  eV     1   --> A_1  D_1  S_1  
     e( 14 - 14) =     32.85513  eV     1   --> A_1  D_1  S_1  
     e( 15 - 15) =     36.24764  eV     1   --> A_1  D_1  S_1  
     e( 16 - 16) =     36.39079  eV     1   --> B_2  D_4  S_4  
     e( 17 - 17) =     43.02659  eV     1   --> A_1  D_1  S_1  
     e( 18 - 18) =     43.41923  eV     1   --> B_1  D_3  S_3  
     e( 19 - 19) =     43.72467  eV     1   --> B_1  D_3  S_3  
     e( 20 - 20) =     45.50865  eV     1   --> A_1  D_1  S_1  

 **************************************************************************

 **************************************************************************

                    xk=(   0.00000,   0.57735,   0.00000  )

     point group D_2h (mmm) 
     there are  8 classes
     the character table:

       E     C2    C2'   C2''  i     s_v   s_v'  s_v''
A_g    1.00  1.00  1.00  1.00  1.00  1.00  1.00  1.00
B_1g   1.00  1.00 -1.00 -1.00  1.00  1.00 -1.00 -1.00
B_2g   1.00 -1.00  1.00 -1.00  1.00 -1.00  1.00 -1.00
B_3g   1.00 -1.00 -1.00  1.00  1.00 -1.00 -1.00  1.00
A_u    1.00  1.00  1.00  1.00 -1.00 -1.00 -1.00 -1.00
B_1u   1.00  1.00 -1.00 -1.00 -1.00 -1.00  1.00  1.00
B_2u   1.00 -1.00  1.00 -1.00 -1.00  1.00 -1.00  1.00
B_3u   1.00 -1.00 -1.00  1.00 -1.00  1.00  1.00 -1.00

     the symmetry operations in each class and the name of the first element:

     E        1
                                                                 
     C2       2
                                                                 
     C2'      4
                                                                 
     C2''     3
                                                                 
     i        5
                                                                 
     s_v      6
                                                                 
     s_v'     8
                                                                 
     s_v''    7
                                                                 

     Band symmetry, D_2h (mmm)  point group:

     e(  1 -  1) =    -36.04100  eV     1   --> A_g            
     e(  2 -  2) =    -11.24725  eV     1   --> B_3u           
     e(  3 -  3) =    -10.30351  eV     1   --> B_1u           
     e(  4 -  4) =    -10.18876  eV     1   --> B_2u           
     e(  5 -  5) =     12.72487  eV     1   --> A_g            
     e(  6 -  6) =     14.88859  eV     1   --> B_3u           
     e(  7 -  7) =     18.17833  eV     1   --> B_2g           
     e(  8 -  8) =     18.84274  eV     1   --> A_g            
     e(  9 -  9) =     20.31544  eV     1   --> B_2u           
     e( 10 - 10) =     24.85492  eV     1   --> B_3g           
     e( 11 - 11) =     27.57705  eV     1   --> B_1u           
     e( 12 - 12) =     27.74927  eV     1   --> B_1g           
     e( 13 - 13) =     28.87654  eV     1   --> A_g            
     e( 14 - 14) =     32.83146  eV     1   --> B_3u           
     e( 15 - 15) =     36.24387  eV     1   --> A_g            
     e( 16 - 16) =     36.40776  eV     1   --> B_2g           
     e( 17 - 17) =     43.07483  eV     1   --> A_g            
     e( 18 - 18) =     43.49899  eV     1   --> B_1g           
     e( 19 - 19) =     43.66318  eV     1   --> B_2u           
     e( 20 - 20) =     45.47124  eV     1   --> B_3u           

 **************************************************************************

 **************************************************************************

                    xk=(   0.01667,   0.57735,   0.00000  )

     point group C_2v (mm2) 
     there are  4 classes
     the character table:

       E     C2    s_v   s_v' 
A_1    1.00  1.00  1.00  1.00
A_2    1.00  1.00 -1.00 -1.00
B_1    1.00 -1.00  1.00 -1.00
B_2    1.00 -1.00 -1.00  1.00

     the symmetry operations in each class and the name of the first element:

     E        1
                                                                 
     C2       2
                                                                 
     s_v      4
                                                                 
     s_v'     3
                                                                 

     Band symmetry, C_2v (mm2)  point group:

     e(  1 -  1) =    -36.04086  eV     1   --> A_1  D_1  S_1  
     e(  2 -  2) =    -11.24610  eV     1   --> B_2  D_4  S_4  
     e(  3 -  3) =    -10.30334  eV     1   --> B_1  D_3  S_3  
     e(  4 -  4) =    -10.19135  eV     1   --> A_1  D_1  S_1  
     e(  5 -  5) =     12.73156  eV     1   --> A_1  D_1  S_1  
     e(  6 -  6) =     14.88943  eV     1   --> B_2  D_4  S_4  
     e(  7 -  7) =     18.18288  eV     1   --> A_2  D_2  S_2  
     e(  8 -  8) =     18.81409  eV     1   --> A_1  D_1  S_1  
     e(  9 -  9) =     20.34507  eV     1   --> A_1  D_1  S_1  
     e( 10 - 10) =     24.79624  eV     1   --> B_1  D_3  S_3  
     e( 11 - 11) =     27.64423  eV     1   --> B_1  D_3  S_3  
     e( 12 - 12) =     27.72704  eV     1   --> B_2  D_4  S_4  
     e( 13 - 13) =     28.86576  eV     1   --> A_1  D_1  S_1  
     e( 14 - 14) =     32.86231  eV     1   --> B_2  D_4  S_4  
     e( 15 - 15) =     36.25979  eV     1   --> A_1  D_1  S_1  
     e( 16 - 16) =     36.40159  eV     1   --> A_2  D_2  S_2  
     e( 17 - 17) =     43.00852  eV     1   --> A_1  D_1  S_1  
     e( 18 - 18) =     43.49202  eV     1   --> B_2  D_4  S_4  
     e( 19 - 19) =     43.72621  eV     1   --> A_1  D_1  S_1  
     e( 20 - 20) =     45.47893  eV     1   --> B_2  D_4  S_4  

 **************************************************************************

 **************************************************************************

                    xk=(   0.03333,   0.57735,   0.00000  )

     Band symmetry, C_2v (mm2)  point group:

     e(  1 -  1) =    -36.04044  eV     1   --> A_1  D_1  S_1  
     e(  2 -  2) =    -11.24266  eV     1   --> B_2  D_4  S_4  
     e(  3 -  3) =    -10.30281  eV     1   --> B_1  D_3  S_3  
     e(  4 -  4) =    -10.19906  eV     1   --> A_1  D_1  S_1  
     e(  5 -  5) =     12.75194  eV     1   --> A_1  D_1  S_1  
     e(  6 -  6) =     14.89246  eV     1   --> B_2  D_4  S_4  
     e(  7 -  7) =     18.19656  eV     1   --> A_2  D_2  S_2  
     e(  8 -  8) =     18.73372  eV     1   --> A_1  D_1  S_1  
     e(  9 -  9) =     20.42881  eV     1   --> A_1  D_1  S_1  
     e( 10 - 10) =     24.63527  eV     1   --> B_1  D_3  S_3  
     e( 11 - 11) =     27.66218  eV     1   --> B_2  D_4  S_4  
     e( 12 - 12) =     27.83063  eV     1   --> B_1  D_3  S_3  
     e( 13 - 13) =     28.83384  eV     1   --> A_1  D_1  S_1  
     e( 14 - 14) =     32.95313  eV     1   --> B_2  D_4  S_4  
     e( 15 - 15) =     36.30744  eV     1   --> A_1  D_1  S_1  
     e( 16 - 16) =     36.38322  eV     1   --> A_2  D_2  S_2  
     e( 17 - 17) =     42.85937  eV     1   --> A_1  D_1  S_1  
     e( 18 - 18) =     43.47666  eV     1   --> B_2  D_4  S_4  
     e( 19 - 19) =     43.86585  eV     1   --> A_1  D_1  S_1  
     e( 20 - 20) =     45.50202  eV     1   --> B_2  D_4  S_4  

 **************************************************************************

 **************************************************************************

                    xk=(   0.05000,   0.57735,   0.00000  )

     Band symmetry, C_2v (mm2)  point group:

     e(  1 -  1) =    -36.03975  eV     1   --> A_1  D_1  S_1  
     e(  2 -  2) =    -11.23693  eV     1   --> B_2  D_4  S_4  
     e(  3 -  3) =    -10.30195  eV     1   --> B_1  D_3  S_3  
     e(  4 -  4) =    -10.21180  eV     1   --> A_1  D_1  S_1  
     e(  5 -  5) =     12.78504  eV     1   --> A_1  D_1  S_1  
     e(  6 -  6) =     14.89663  eV     1   --> B_2  D_4  S_4  
     e(  7 -  7) =     18.21932  eV     1   --> A_2  D_2  S_2  
     e(  8 -  8) =     18.61387  eV     1   --> A_1  D_1  S_1  
     e(  9 -  9) =     20.55387  eV     1   --> A_1  D_1  S_1  
     e( 10 - 10) =     24.40363  eV     1   --> B_1  D_3  S_3  
     e( 11 - 11) =     27.55914  eV     1   --> B_2  D_4  S_4  
     e( 12 - 12) =     28.10433  eV     1   --> B_1  D_3  S_3  
     e( 13 - 13) =     28.78043  eV     1   --> A_1  D_1  S_1  
     e( 14 - 14) =     33.09912  eV     1   --> B_2  D_4  S_4  
     e( 15 - 15) =     36.35258  eV     1   --> A_2  D_2  S_2  
     e( 16 - 16) =     36.38571  eV     1   --> A_1  D_1  S_1  
     e( 17 - 17) =     42.67875  eV     1   --> A_1  D_1  S_1  
     e( 18 - 18) =     43.44294  eV     1   --> B_2  D_4  S_4  
     e( 19 - 19) =     44.02729  eV     1   --> A_1  D_1  S_1  
     e( 20 - 20) =     45.53904  eV     1   --> B_2  D_4  S_4  

 **************************************************************************

 **************************************************************************

                    xk=(   0.06667,   0.57735,   0.00000  )

     Band symmetry, C_2v (mm2)  point group:

     e(  1 -  1) =    -36.03881  eV     1   --> A_1  D_1  S_1  
     e(  2 -  2) =    -11.22895  eV     1   --> B_2  D_4  S_4  
     e(  3 -  3) =    -10.30077  eV     1   --> B_1  D_3  S_3  
     e(  4 -  4) =    -10.22939  eV     1   --> A_1  D_1  S_1  
     e(  5 -  5) =     12.83114  eV     1   --> A_1  D_1  S_1  
     e(  6 -  6) =     14.90249  eV     1   --> B_2  D_4  S_4  
     e(  7 -  7) =     18.25117  eV     1   --> A_2  D_2  S_2  
     e(  8 -  8) =     18.46626  eV     1   --> A_1  D_1  S_1  
     e(  9 -  9) =     20.70953  eV     1   --> A_1  D_1  S_1  
     e( 10 - 10) =     24.12998  eV     1   --> B_1  D_3  S_3  
     e( 11 - 11) =     27.42455  eV     1   --> B_2  D_4  S_4  
     e( 12 - 12) =     28.43660  eV     1   --> B_1  D_3  S_3  
     e( 13 - 13) =     28.70643  eV     1   --> A_1  D_1  S_1  
     e( 14 - 14) =     33.29367  eV     1   --> B_2  D_4  S_4  
     e( 15 - 15) =     36.31001  eV     1   --> A_2  D_2  S_2  
     e( 16 - 16) =     36.49546  eV     1   --> A_1  D_1  S_1  
     e( 17 - 17) =     42.48730  eV     1   --> A_1  D_1  S_1  
     e( 18 - 18) =     43.39769  eV     1   --> B_2  D_4  S_4  
     e( 19 - 19) =     44.18854  eV     1   --> A_1  D_1  S_1  
     e( 20 - 20) =     45.58875  eV     1   --> B_2  D_4  S_4  

 **************************************************************************

 **************************************************************************

                    xk=(   0.08333,   0.57735,   0.00000  )

     Band symmetry, C_2v (mm2)  point group:

     e(  1 -  1) =    -36.03762  eV     1   --> A_1  D_1  S_1  
     e(  2 -  2) =    -11.21874  eV     1   --> B_2  D_4  S_4  
     e(  3 -  3) =    -10.29929  eV     1   --> B_1  D_3  S_3  
     e(  4 -  4) =    -10.25159  eV     1   --> A_1  D_1  S_1  
     e(  5 -  5) =     12.88987  eV     1   --> A_1  D_1  S_1  
     e(  6 -  6) =     14.91008  eV     1   --> B_2  D_4  S_4  
     e(  7 -  7) =     18.29208  eV     1   --> A_2  D_2  S_2  
     e(  8 -  8) =     18.29939  eV     1   --> A_1  D_1  S_1  
     e(  9 -  9) =     20.88776  eV     1   --> A_1  D_1  S_1  
     e( 10 - 10) =     23.83382  eV     1   --> B_1  D_3  S_3  
     e( 11 - 11) =     27.26545  eV     1   --> B_2  D_4  S_4  
     e( 12 - 12) =     28.61256  eV     1   --> A_1  D_1  S_1  
     e( 13 - 13) =     28.80738  eV     1   --> B_1  D_3  S_3  
     e( 14 - 14) =     33.52954  eV     1   --> B_2  D_4  S_4  
     e( 15 - 15) =     36.25580  eV     1   --> A_2  D_2  S_2  
     e( 16 - 16) =     36.63530  eV     1   --> A_1  D_1  S_1  
     e( 17 - 17) =     42.29229  eV     1   --> A_1  D_1  S_1  
     e( 18 - 18) =     43.34237  eV     1   --> B_2  D_4  S_4  
     e( 19 - 19) =     44.33876  eV     1   --> A_1  D_1  S_1  
     e( 20 - 20) =     45.64949  eV     1   --> B_2  D_4  S_4  

 **************************************************************************

 **************************************************************************

                    xk=(   0.10000,   0.57735,   0.00000  )

     Band symmetry, C_2v (mm2)  point group:

     e(  1 -  1) =    -36.03622  eV     1   --> A_1  D_1  S_1  
     e(  2 -  2) =    -11.20634  eV     1   --> B_2  D_4  S_4  
     e(  3 -  3) =    -10.29754  eV     1   --> B_1  D_3  S_3  
     e(  4 -  4) =    -10.27808  eV     1   --> A_1  D_1  S_1  
     e(  5 -  5) =     12.96079  eV     1   --> A_1  D_1  S_1  
     e(  6 -  6) =     14.91913  eV     1   --> B_2  D_4  S_4  
     e(  7 -  7) =     18.11870  eV     1   --> A_1  D_1  S_1  
     e(  8 -  8) =     18.34203  eV     1   --> A_2  D_2  S_2  
     e(  9 -  9) =     21.08362  eV     1   --> A_1  D_1  S_1  
     e( 10 - 10) =     23.52724  eV     1   --> B_1  D_3  S_3  
     e( 11 - 11) =     27.08840  eV     1   --> B_2  D_4  S_4  
     e( 12 - 12) =     28.49971  eV     1   --> A_1  D_1  S_1  
     e( 13 - 13) =     29.20396  eV     1   --> B_1  D_3  S_3  
     e( 14 - 14) =     33.79965  eV     1   --> B_2  D_4  S_4  
     e( 15 - 15) =     36.19036  eV     1   --> A_2  D_2  S_2  
     e( 16 - 16) =     36.80384  eV     1   --> A_1  D_1  S_1  
     e( 17 - 17) =     42.09661  eV     1   --> A_1  D_1  S_1  
     e( 18 - 18) =     43.27604  eV     1   --> B_2  D_4  S_4  
     e( 19 - 19) =     44.47034  eV     1   --> A_1  D_1  S_1  
     e( 20 - 20) =     45.71886  eV     1   --> B_2  D_4  S_4  

 **************************************************************************

 **************************************************************************

                    xk=(   0.11667,   0.57735,   0.00000  )

     Band symmetry, C_2v (mm2)  point group:

     e(  1 -  1) =    -36.03464  eV     1   --> A_1  D_1  S_1  
     e(  2 -  2) =    -11.19179  eV     1   --> B_2  D_4  S_4  
     e(  3 -  3) =    -10.30852  eV     1   --> A_1  D_1  S_1  
     e(  4 -  4) =    -10.29555  eV     1   --> B_1  D_3  S_3  
     e(  5 -  5) =     13.04353  eV     1   --> A_1  D_1  S_1  
     e(  6 -  6) =     14.93019  eV     1   --> B_2  D_4  S_4  
     e(  7 -  7) =     17.92769  eV     1   --> A_1  D_1  S_1  
     e(  8 -  8) =     18.40097  eV     1   --> A_2  D_2  S_2  
     e(  9 -  9) =     21.29460  eV     1   --> A_1  D_1  S_1  
     e( 10 - 10) =     23.21772  eV     1   --> B_1  D_3  S_3  
[...]
     e(  9 -  9) =     21.40763  eV     1   --> B_1  D_3  S_3  
     e( 10 - 10) =     23.74012  eV     1   --> A_1  D_1  S_1  
     e( 11 - 11) =     25.81273  eV     1   --> A_2  D_2  S_2  
     e( 12 - 12) =     25.86299  eV     1   --> A_1  D_1  S_1  
     e( 13 - 13) =     26.26229  eV     1   --> B_2  D_4  S_4  
     e( 14 - 14) =     32.58498  eV     1   --> B_1  D_3  S_3  
     e( 15 - 15) =     37.03760  eV     1   --> B_2  D_4  S_4  
     e( 16 - 16) =     37.64297  eV     1   --> A_2  D_2  S_2  
     e( 17 - 17) =     39.83699  eV     1   --> A_2  D_2  S_2  
     e( 18 - 18) =     40.87787  eV     1   --> B_2  D_4  S_4  
     e( 19 - 19) =     43.75886  eV     1   --> A_1  D_1  S_1  
     e( 20 - 20) =     46.90396  eV     1   --> A_1  D_1  S_1  

 **************************************************************************

 **************************************************************************

                    xk=(   0.08333,   0.14434,   0.46875  )

     Band symmetry, C_2v (mm2)  point group:

     e(  1 -  1) =    -36.15002  eV     1   --> A_1  D_1  S_1  
     e(  2 -  2) =    -11.20152  eV     1   --> B_2  D_4  S_4  
     e(  3 -  3) =    -10.07240  eV     1   --> A_1  D_1  S_1  
     e(  4 -  4) =     -9.87007  eV     1   --> B_1  D_3  S_3  
     e(  5 -  5) =     12.43935  eV     1   --> B_2  D_4  S_4  
     e(  6 -  6) =     15.69404  eV     1   --> A_1  D_1  S_1  
     e(  7 -  7) =     19.69008  eV     1   --> A_2  D_2  S_2  
     e(  8 -  8) =     20.07301  eV     1   --> B_2  D_4  S_4  
     e(  9 -  9) =     21.59522  eV     1   --> B_1  D_3  S_3  
     e( 10 - 10) =     23.58559  eV     1   --> A_1  D_1  S_1  
     e( 11 - 11) =     25.54800  eV     1   --> A_2  D_2  S_2  
     e( 12 - 12) =     25.80173  eV     1   --> A_1  D_1  S_1  
     e( 13 - 13) =     25.92823  eV     1   --> B_2  D_4  S_4  
     e( 14 - 14) =     32.28029  eV     1   --> B_1  D_3  S_3  
     e( 15 - 15) =     37.15855  eV     1   --> B_2  D_4  S_4  
     e( 16 - 16) =     37.63416  eV     1   --> A_2  D_2  S_2  
     e( 17 - 17) =     39.70348  eV     1   --> A_2  D_2  S_2  
     e( 18 - 18) =     40.62183  eV     1   --> B_2  D_4  S_4  
     e( 19 - 19) =     44.06702  eV     1   --> A_1  D_1  S_1  
     e( 20 - 20) =     47.30399  eV     1   --> A_1  D_1  S_1  

 **************************************************************************

 **************************************************************************

                    xk=(   0.07500,   0.12990,   0.46875  )

     Band symmetry, C_2v (mm2)  point group:

     e(  1 -  1) =    -36.15686  eV     1   --> A_1  D_1  S_1  
     e(  2 -  2) =    -11.21275  eV     1   --> B_2  D_4  S_4  
     e(  3 -  3) =    -10.02616  eV     1   --> A_1  D_1  S_1  
     e(  4 -  4) =     -9.85794  eV     1   --> B_1  D_3  S_3  
     e(  5 -  5) =     12.45924  eV     1   --> B_2  D_4  S_4  
     e(  6 -  6) =     15.54845  eV     1   --> A_1  D_1  S_1  
     e(  7 -  7) =     19.97776  eV     1   --> A_2  D_2  S_2  
     e(  8 -  8) =     20.28256  eV     1   --> B_2  D_4  S_4  
     e(  9 -  9) =     21.78154  eV     1   --> B_1  D_3  S_3  
     e( 10 - 10) =     23.44514  eV     1   --> A_1  D_1  S_1  
     e( 11 - 11) =     25.27928  eV     1   --> A_2  D_2  S_2  
     e( 12 - 12) =     25.59491  eV     1   --> B_2  D_4  S_4  
     e( 13 - 13) =     25.74579  eV     1   --> A_1  D_1  S_1  
     e( 14 - 14) =     31.97948  eV     1   --> B_1  D_3  S_3  
     e( 15 - 15) =     37.27082  eV     1   --> B_2  D_4  S_4  
     e( 16 - 16) =     37.60767  eV     1   --> A_2  D_2  S_2  
     e( 17 - 17) =     39.59993  eV     1   --> A_2  D_2  S_2  
     e( 18 - 18) =     40.38872  eV     1   --> B_2  D_4  S_4  
     e( 19 - 19) =     44.34464  eV     1   --> A_1  D_1  S_1  
     e( 20 - 20) =     47.66386  eV     1   --> B_1  D_3  S_3  

 **************************************************************************

 **************************************************************************

                    xk=(   0.06667,   0.11547,   0.46875  )

     Band symmetry, C_2v (mm2)  point group:

     e(  1 -  1) =    -36.16312  eV     1   --> A_1  D_1  S_1  
     e(  2 -  2) =    -11.22304  eV     1   --> B_2  D_4  S_4  
     e(  3 -  3) =     -9.98318  eV     1   --> A_1  D_1  S_1  
     e(  4 -  4) =     -9.84712  eV     1   --> B_1  D_3  S_3  
     e(  5 -  5) =     12.47748  eV     1   --> B_2  D_4  S_4  
     e(  6 -  6) =     15.41532  eV     1   --> A_1  D_1  S_1  
     e(  7 -  7) =     20.26734  eV     1   --> A_2  D_2  S_2  
     e(  8 -  8) =     20.50308  eV     1   --> B_2  D_4  S_4  
     e(  9 -  9) =     21.96397  eV     1   --> B_1  D_3  S_3  
     e( 10 - 10) =     23.31902  eV     1   --> A_1  D_1  S_1  
     e( 11 - 11) =     25.00714  eV     1   --> A_2  D_2  S_2  
     e( 12 - 12) =     25.26316  eV     1   --> B_2  D_4  S_4  
     e( 13 - 13) =     25.69537  eV     1   --> A_1  D_1  S_1  
     e( 14 - 14) =     31.68866  eV     1   --> B_1  D_3  S_3  
     e( 15 - 15) =     37.37374  eV     1   --> B_2  D_4  S_4  
     e( 16 - 16) =     37.56812  eV     1   --> A_2  D_2  S_2  
     e( 17 - 17) =     39.52377  eV     1   --> A_2  D_2  S_2  
     e( 18 - 18) =     40.17967  eV     1   --> B_2  D_4  S_4  
     e( 19 - 19) =     44.59328  eV     1   --> A_1  D_1  S_1  
     e( 20 - 20) =     48.04089  eV     1   --> B_1  D_3  S_3  

 **************************************************************************

 **************************************************************************

                    xk=(   0.05833,   0.10104,   0.46875  )

     Band symmetry, C_2v (mm2)  point group:

     e(  1 -  1) =    -36.16877  eV     1   --> A_1  D_1  S_1  
     e(  2 -  2) =    -11.23230  eV     1   --> B_2  D_4  S_4  
     e(  3 -  3) =     -9.94394  eV     1   --> A_1  D_1  S_1  
     e(  4 -  4) =     -9.83760  eV     1   --> B_1  D_3  S_3  
     e(  5 -  5) =     12.49391  eV     1   --> B_2  D_4  S_4  
     e(  6 -  6) =     15.29556  eV     1   --> A_1  D_1  S_1  
     e(  7 -  7) =     20.55826  eV     1   --> A_2  D_2  S_2  
     e(  8 -  8) =     20.73402  eV     1   --> B_2  D_4  S_4  
     e(  9 -  9) =     22.13939  eV     1   --> B_1  D_3  S_3  
     e( 10 - 10) =     23.20744  eV     1   --> A_1  D_1  S_1  
     e( 11 - 11) =     24.73198  eV     1   --> A_2  D_2  S_2  
     e( 12 - 12) =     24.93371  eV     1   --> B_2  D_4  S_4  
     e( 13 - 13) =     25.65058  eV     1   --> A_1  D_1  S_1  
     e( 14 - 14) =     31.41312  eV     1   --> B_1  D_3  S_3  
     e( 15 - 15) =     37.46638  eV     1   --> B_2  D_4  S_4  
     e( 16 - 16) =     37.51949  eV     1   --> A_2  D_2  S_2  
     e( 17 - 17) =     39.47093  eV     1   --> A_2  D_2  S_2  
     e( 18 - 18) =     39.99509  eV     1   --> B_2  D_4  S_4  
     e( 19 - 19) =     44.81315  eV     1   --> A_1  D_1  S_1  
     e( 20 - 20) =     48.43463  eV     1   --> B_1  D_3  S_3  

 **************************************************************************

 **************************************************************************

                    xk=(   0.05000,   0.08660,   0.46875  )

     Band symmetry, C_2v (mm2)  point group:

     e(  1 -  1) =    -36.17376  eV     1   --> A_1  D_1  S_1  
     e(  2 -  2) =    -11.24046  eV     1   --> B_2  D_4  S_4  
     e(  3 -  3) =     -9.90892  eV     1   --> A_1  D_1  S_1  
     e(  4 -  4) =     -9.82938  eV     1   --> B_1  D_3  S_3  
     e(  5 -  5) =     12.50837  eV     1   --> B_2  D_4  S_4  
     e(  6 -  6) =     15.18999  eV     1   --> A_1  D_1  S_1  
     e(  7 -  7) =     20.84980  eV     1   --> A_2  D_2  S_2  
     e(  8 -  8) =     20.97459  eV     1   --> B_2  D_4  S_4  
     e(  9 -  9) =     22.30420  eV     1   --> B_1  D_3  S_3  
     e( 10 - 10) =     23.11053  eV     1   --> A_1  D_1  S_1  
     e( 11 - 11) =     24.45435  eV     1   --> A_2  D_2  S_2  
     e( 12 - 12) =     24.60748  eV     1   --> B_2  D_4  S_4  
     e( 13 - 13) =     25.61154  eV     1   --> A_1  D_1  S_1  
     e( 14 - 14) =     31.15826  eV     1   --> B_1  D_3  S_3  
     e( 15 - 15) =     37.46648  eV     1   --> A_2  D_2  S_2  
     e( 16 - 16) =     37.54793  eV     1   --> B_2  D_4  S_4  
     e( 17 - 17) =     39.43656  eV     1   --> A_2  D_2  S_2  
     e( 18 - 18) =     39.83529  eV     1   --> B_2  D_4  S_4  
     e( 19 - 19) =     45.00431  eV     1   --> A_1  D_1  S_1  
     e( 20 - 20) =     48.84171  eV     1   --> B_1  D_3  S_3  

 **************************************************************************

 **************************************************************************

                    xk=(   0.04167,   0.07217,   0.46875  )

     Band symmetry, C_2v (mm2)  point group:

     e(  1 -  1) =    -36.17804  eV     1   --> A_1  D_1  S_1  
     e(  2 -  2) =    -11.24748  eV     1   --> B_2  D_4  S_4  
     e(  3 -  3) =     -9.87852  eV     1   --> A_1  D_1  S_1  
     e(  4 -  4) =     -9.82244  eV     1   --> B_1  D_3  S_3  
     e(  5 -  5) =     12.52076  eV     1   --> B_2  D_4  S_4  
     e(  6 -  6) =     15.09934  eV     1   --> A_1  D_1  S_1  
     e(  7 -  7) =     21.14097  eV     1   --> A_2  D_2  S_2  
     e(  8 -  8) =     21.22371  eV     1   --> B_2  D_4  S_4  
     e(  9 -  9) =     22.45441  eV     1   --> B_1  D_3  S_3  
     e( 10 - 10) =     23.02840  eV     1   --> A_1  D_1  S_1  
     e( 11 - 11) =     24.17514  eV     1   --> A_2  D_2  S_2  
     e( 12 - 12) =     24.28570  eV     1   --> B_2  D_4  S_4  
     e( 13 - 13) =     25.57833  eV     1   --> A_1  D_1  S_1  
     e( 14 - 14) =     30.92954  eV     1   --> B_1  D_3  S_3  
     e( 15 - 15) =     37.41372  eV     1   --> A_2  D_2  S_2  
     e( 16 - 16) =     37.61770  eV     1   --> B_2  D_4  S_4  
     e( 17 - 17) =     39.41585  eV     1   --> A_2  D_2  S_2  
     e( 18 - 18) =     39.70040  eV     1   --> B_2  D_4  S_4  
     e( 19 - 19) =     45.16665  eV     1   --> A_1  D_1  S_1  
     e( 20 - 20) =     49.25805  eV     1   --> B_1  D_3  S_3  

 **************************************************************************

 **************************************************************************

                    xk=(   0.03333,   0.05774,   0.46875  )

     Band symmetry, C_2v (mm2)  point group:

     e(  1 -  1) =    -36.18159  eV     1   --> A_1  D_1  S_1  
     e(  2 -  2) =    -11.25329  eV     1   --> B_2  D_4  S_4  
     e(  3 -  3) =     -9.85311  eV     1   --> A_1  D_1  S_1  
     e(  4 -  4) =     -9.81678  eV     1   --> B_1  D_3  S_3  
     e(  5 -  5) =     12.53100  eV     1   --> B_2  D_4  S_4  
     e(  6 -  6) =     15.02426  eV     1   --> A_1  D_1  S_1  
     e(  7 -  7) =     21.43013  eV     1   --> A_2  D_2  S_2  
     e(  8 -  8) =     21.47965  eV     1   --> B_2  D_4  S_4  
     e(  9 -  9) =     22.58573  eV     1   --> B_1  D_3  S_3  
     e( 10 - 10) =     22.96113  eV     1   --> A_1  D_1  S_1  
     e( 11 - 11) =     23.89588  eV     1   --> A_2  D_2  S_2  
     e( 12 - 12) =     23.97019  eV     1   --> B_2  D_4  S_4  
     e( 13 - 13) =     25.55105  eV     1   --> A_1  D_1  S_1  
     e( 14 - 14) =     30.73246  eV     1   --> B_1  D_3  S_3  
     e( 15 - 15) =     37.36532  eV     1   --> A_2  D_2  S_2  
     e( 16 - 16) =     37.67519  eV     1   --> B_2  D_4  S_4  
     e( 17 - 17) =     39.40452  eV     1   --> A_2  D_2  S_2  
     e( 18 - 18) =     39.59045  eV     1   --> B_2  D_4  S_4  
     e( 19 - 19) =     45.29996  eV     1   --> A_1  D_1  S_1  
     e( 20 - 20) =     49.67792  eV     1   --> B_1  D_3  S_3  

 **************************************************************************

 **************************************************************************

                    xk=(   0.02500,   0.04330,   0.46875  )

     Band symmetry, C_2v (mm2)  point group:

     e(  1 -  1) =    -36.18438  eV     1   --> A_1  D_1  S_1  
     e(  2 -  2) =    -11.25786  eV     1   --> B_2  D_4  S_4  
     e(  3 -  3) =     -9.83302  eV     1   --> A_1  D_1  S_1  
     e(  4 -  4) =     -9.81239  eV     1   --> B_1  D_3  S_3  
     e(  5 -  5) =     12.53902  eV     1   --> B_2  D_4  S_4  
     e(  6 -  6) =     14.96529  eV     1   --> A_1  D_1  S_1  
     e(  7 -  7) =     21.71422  eV     1   --> A_2  D_2  S_2  
     e(  8 -  8) =     21.73920  eV     1   --> B_2  D_4  S_4  
     e(  9 -  9) =     22.69380  eV     1   --> B_1  D_3  S_3  
     e( 10 - 10) =     22.90876  eV     1   --> A_1  D_1  S_1  
     e( 11 - 11) =     23.61957  eV     1   --> A_2  D_2  S_2  
     e( 12 - 12) =     23.66424  eV     1   --> B_2  D_4  S_4  
     e( 13 - 13) =     25.52976  eV     1   --> A_1  D_1  S_1  
     e( 14 - 14) =     30.57232  eV     1   --> B_1  D_3  S_3  
     e( 15 - 15) =     37.32456  eV     1   --> A_2  D_2  S_2  
     e( 16 - 16) =     37.72004  eV     1   --> B_2  D_4  S_4  
     e( 17 - 17) =     39.39912  eV     1   --> A_2  D_2  S_2  
     e( 18 - 18) =     39.50530  eV     1   --> B_2  D_4  S_4  
     e( 19 - 19) =     45.40400  eV     1   --> A_1  D_1  S_1  
     e( 20 - 20) =     50.09151  eV     1   --> B_1  D_3  S_3  

 **************************************************************************

 **************************************************************************

                    xk=(   0.01667,   0.02887,   0.46875  )

     Band symmetry, C_2v (mm2)  point group:

     e(  1 -  1) =    -36.18638  eV     1   --> A_1  D_1  S_1  
     e(  2 -  2) =    -11.26114  eV     1   --> B_2  D_4  S_4  
     e(  3 -  3) =     -9.81849  eV     1   --> A_1  D_1  S_1  
     e(  4 -  4) =     -9.80925  eV     1   --> B_1  D_3  S_3  
     e(  5 -  5) =     12.54491  eV     1   --> B_2  D_4  S_4  
     e(  6 -  6) =     14.92286  eV     1   --> A_1  D_1  S_1  
     e(  7 -  7) =     21.98581  eV     1   --> A_2  D_2  S_2  
     e(  8 -  8) =     21.99508  eV     1   --> B_2  D_4  S_4  
     e(  9 -  9) =     22.77452  eV     1   --> B_1  D_3  S_3  
     e( 10 - 10) =     22.87134  eV     1   --> A_1  D_1  S_1  
     e( 11 - 11) =     23.35387  eV     1   --> A_2  D_2  S_2  
     e( 12 - 12) =     23.37694  eV     1   --> B_2  D_4  S_4  
     e( 13 - 13) =     25.51451  eV     1   --> A_1  D_1  S_1  
     e( 14 - 14) =     30.45399  eV     1   --> B_1  D_3  S_3  
     e( 15 - 15) =     37.29483  eV     1   --> A_2  D_2  S_2  
     e( 16 - 16) =     37.75211  eV     1   --> B_2  D_4  S_4  
     e( 17 - 17) =     39.39817  eV     1   --> A_2  D_2  S_2  
     e( 18 - 18) =     39.44487  eV     1   --> B_2  D_4  S_4  
     e( 19 - 19) =     45.47875  eV     1   --> A_1  D_1  S_1  
     e( 20 - 20) =     50.47856  eV     1   --> B_1  D_3  S_3  

 **************************************************************************

 **************************************************************************

                    xk=(   0.00833,   0.01443,   0.46875  )

     Band symmetry, C_2v (mm2)  point group:

     e(  1 -  1) =    -36.18759  eV     1   --> A_1  D_1  S_1  
     e(  2 -  2) =    -11.26312  eV     1   --> B_2  D_4  S_4  
     e(  3 -  3) =     -9.80969  eV     1   --> A_1  D_1  S_1  
     e(  4 -  4) =     -9.80737  eV     1   --> B_1  D_3  S_3  
     e(  5 -  5) =     12.54851  eV     1   --> B_2  D_4  S_4  
     e(  6 -  6) =     14.89728  eV     1   --> A_1  D_1  S_1  
     e(  7 -  7) =     22.22143  eV     1   --> A_2  D_2  S_2  
     e(  8 -  8) =     22.22289  eV     1   --> B_2  D_4  S_4  
     e(  9 -  9) =     22.82447  eV     1   --> B_1  D_3  S_3  
     e( 10 - 10) =     22.84888  eV     1   --> A_1  D_1  S_1  
     e( 11 - 11) =     23.12244  eV     1   --> A_2  D_2  S_2  
     e( 12 - 12) =     23.13040  eV     1   --> B_2  D_4  S_4  
     e( 13 - 13) =     25.50535  eV     1   --> A_1  D_1  S_1  
     e( 14 - 14) =     30.38132  eV     1   --> B_1  D_3  S_3  
     e( 15 - 15) =     37.27679  eV     1   --> A_2  D_2  S_2  
     e( 16 - 16) =     37.77134  eV     1   --> B_2  D_4  S_4  
     e( 17 - 17) =     39.39831  eV     1   --> A_2  D_2  S_2  
     e( 18 - 18) =     39.40912  eV     1   --> B_2  D_4  S_4  
     e( 19 - 19) =     45.52377  eV     1   --> A_1  D_1  S_1  
     e( 20 - 20) =     50.79006  eV     1   --> B_1  D_3  S_3  

 **************************************************************************

 **************************************************************************

                    xk=(   0.00000,   0.00000,   0.46875  )

     point group D_6h(6/mmm)
     there are 12 classes
     the character table:

       E     2C6   2C3   C2    3C2'  3C2'' i     2S3   2S6   s_h   3s_d  3s_v 
A_1g   1.00  1.00  1.00  1.00  1.00  1.00  1.00  1.00  1.00  1.00  1.00  1.00
A_2g   1.00  1.00  1.00  1.00 -1.00 -1.00  1.00  1.00  1.00  1.00 -1.00 -1.00
B_1g   1.00 -1.00  1.00 -1.00  1.00 -1.00  1.00 -1.00  1.00 -1.00  1.00 -1.00
B_2g   1.00 -1.00  1.00 -1.00 -1.00  1.00  1.00 -1.00  1.00 -1.00 -1.00  1.00
E_1g   2.00  1.00 -1.00 -2.00  0.00  0.00  2.00  1.00 -1.00 -2.00  0.00  0.00
E_2g   2.00 -1.00 -1.00  2.00  0.00  0.00  2.00 -1.00 -1.00  2.00  0.00  0.00
A_1u   1.00  1.00  1.00  1.00  1.00  1.00 -1.00 -1.00 -1.00 -1.00 -1.00 -1.00
A_2u   1.00  1.00  1.00  1.00 -1.00 -1.00 -1.00 -1.00 -1.00 -1.00  1.00  1.00
B_1u   1.00 -1.00  1.00 -1.00  1.00 -1.00 -1.00  1.00 -1.00  1.00 -1.00  1.00
B_2u   1.00 -1.00  1.00 -1.00 -1.00  1.00 -1.00  1.00 -1.00  1.00  1.00 -1.00
E_1u   2.00  1.00 -1.00 -2.00  0.00  0.00 -2.00 -1.00  1.00  2.00  0.00  0.00
E_2u   2.00 -1.00 -1.00  2.00  0.00  0.00 -2.00  1.00  1.00 -2.00  0.00  0.00

     the symmetry operations in each class and the name of the first element:

     E        1
                                                                 
     2C6      5    6
                                                                 
     2C3      7    8
                                                                 
     C2       2
                                                                 
     3C2'     4   12   11
                                                                 
     3C2''    3    9   10
                                                                 
     i       13
                                                                 
     2S3     17   18
                                                                 
     2S6     19   20
                                                                 
     s_h     14
                                                                 
     3s_d    16   24   23
                                                                 
     3s_v    15   21   22
                                                                 

     Band symmetry, D_6h(6/mmm) point group:

     e(  1 -  1) =    -36.18798  eV     1   --> A_1g           
     e(  2 -  2) =    -11.26377  eV     1   --> A_2u           
     e(  3 -  4) =     -9.80674  eV     2   --> E_1u           
     e(  5 -  5) =     12.54979  eV     1   --> A_2u           
     e(  6 -  6) =     14.88873  eV     1   --> A_1g           
     e(  7 -  8) =     22.33422  eV     2   --> E_1g           
     e(  9 - 10) =     22.84139  eV     2   --> E_2g           
     e( 11 - 12) =     23.01261  eV     2   --> E_2u           
     e( 13 - 13) =     25.50229  eV     1   --> A_1g           
     e( 14 - 14) =     30.35684  eV     1   --> B_2u           
     e( 15 - 15) =     37.27123  eV     1   --> B_1g           
     e( 16 - 16) =     37.77775  eV     1   --> A_2u           
     e( 17 - 18) =     39.39826  eV     2   --> E_1g           
     e( 19 - 19) =     45.53893  eV     1   --> A_1g           
     e( 20 - 20) =     50.92108  eV     1   -->   ?

 **************************************************************************
 
     BANDS        :      5.88s CPU      6.36s WALL

 
   This run was terminated on:  10:25:32  28Apr2022            

=------------------------------------------------------------------------------=
   JOB DONE.
=------------------------------------------------------------------------------=
