
     Program PHONON v.7.0 starts on 31May2022 at  0:13:26 

     This program is part of the open-source Quantum ESPRESSO suite
     for quantum simulation of materials; please cite
         "P. Giannozzi et al., J. Phys.:Condens. Matter 21 395502 (2009);
         "P. Giannozzi et al., J. Phys.:Condens. Matter 29 465901 (2017);
         "P. Giannozzi et al., J. Chem. Phys. 152 154105 (2020);
          URL http://www.quantum-espresso.org", 
     in publications or presentations arising from this work. More details at
     http://www.quantum-espresso.org/quote

     Parallel version (MPI), running on     8 processors

     MPI processes distributed on     1 nodes
     R & G space division:  proc/nbgrp/npool/nimage =       8
     5362 MiB available memory on the printing compute node when the environment starts
 
     Reading input from mob2_fonon_05.in

     Reading xml data from directory:

     ./tmp/mob2.save/

     IMPORTANT: XC functional enforced from input :
     Exchange-correlation= PBE
                           (   1   4   3   4   0   0   0)
     Any further DFT definition will be discarded
     Please, verify this is what you really want

 
     Parallelization info
     --------------------
     sticks:   dense  smooth     PW     G-vecs:    dense   smooth      PW
     Min         148      43     13                 4484      685     127
     Max         149      44     14                 4489      688     132
     Sum        1189     349    109                35901     5497    1033
 
     Using Slab Decomposition
 
     Reading collected, re-writing distributed wavefunctions


     Dynamical matrices for ( 3, 3, 3)  uniform grid of q-points
     (   6 q-points):
       N         xq(1)         xq(2)         xq(3) 
       1   0.000000000   0.000000000   0.000000000
       2   0.000000000   0.000000000   0.311376641
       3   0.000000000   0.384900179   0.000000000
       4   0.000000000   0.384900179   0.311376641
       5   0.333333333   0.577350269   0.000000000
       6   0.333333333   0.577350269   0.311376641

     Calculation of q =    0.3333333   0.5773503   0.0000000

     Subspace diagonalization in iterative solution of the eigenvalue problem:
     a serial algorithm will be used

 
     Parallelization info
     --------------------
     sticks:   dense  smooth     PW     G-vecs:    dense   smooth      PW
     Min         148      43     15                 4484      685     163
     Max         149      44     16                 4489      688     166
     Sum        1189     349    127                35901     5497    1317
 
     Using Slab Decomposition
 

     Title: 
     Phonon calc for qp05                                                       


     bravais-lattice index     =            4
     lattice parameter (alat)  =       5.8733  a.u.
     unit-cell volume          =     187.8355 (a.u.)^3
     number of atoms/cell      =            3
     number of atomic types    =            2
     number of electrons       =        19.00
     number of Kohn-Sham states=           20
     kinetic-energy cutoff     =      36.0000  Ry
     charge density cutoff     =     504.0000  Ry
     Exchange-correlation= PBE
                           (   1   4   3   4   0   0   0)

     celldm(1)=   5.873335  celldm(2)=   0.000000  celldm(3)=   1.070515
     celldm(4)=   0.000000  celldm(5)=   0.000000  celldm(6)=   0.000000

     crystal axes: (cart. coord. in units of alat)
               a(1) = (   1.000000   0.000000   0.000000 )  
               a(2) = (  -0.500000   0.866025   0.000000 )  
               a(3) = (   0.000000   0.000000   1.070515 )  

     reciprocal axes: (cart. coord. in units 2 pi/alat)
               b(1) = (  1.000000  0.577350  0.000000 )  
               b(2) = (  0.000000  1.154701  0.000000 )  
               b(3) = (  0.000000  0.000000  0.934130 )  


     PseudoPot. # 1 for Xx read from file:
     /home/marcocarmonaga/Apps/qe-7.0/pseudo/Nb1.00Mo0.00.upf
     MD5 check sum: e4b562b21cfca1bf7e2ab47e57cae993
     Pseudo is Norm-conserving, Zval = 13.0
     Generated using virtual.x code
     Using radial grid of  602 points, 12 beta functions with: 
                l(1) =   0
                l(2) =   0
                l(3) =   1
                l(4) =   1
                l(5) =   2
                l(6) =   2
                l(7) =   0
                l(8) =   0
                l(9) =   1
               l(10) =   1
               l(11) =   2
               l(12) =   2

     PseudoPot. # 2 for B  read from file:
     /home/marcocarmonaga/Apps/qe-7.0/pseudo/B_ONCV_PBE-1.2.upf
     MD5 check sum: eb3cbeacc2d324d57d903df00f564d27
     Pseudo is Norm-conserving, Zval =  3.0
     Generated using ONCVPSP code by D. R. Hamann
     Using radial grid of  602 points,  4 beta functions with: 
                l(1) =   0
                l(2) =   0
                l(3) =   1
                l(4) =   1

     atomic species   valence    mass     pseudopotential
        Mo            13.00    92.90600     Xx( 1.00)
        B              3.00    10.81000     B ( 1.00)

     24 Sym. Ops., with inversion, found



   Cartesian axes

     site n.     atom                  positions (alat units)
         1           Mo  tau(   1) = (   0.0000000   0.0000000   0.0000000  )
         2           B   tau(   2) = (   0.5000000   0.2886751   0.5352574  )
         3           B   tau(   3) = (   0.0000000   0.5773503   0.5352574  )

     number of k points=  1152  Gaussian smearing, width (Ry)=  0.0150

     Number of k-points >= 100: set verbosity='high' to print them.

     Dense  grid:    35901 G-vectors     FFT dimensions: (  45,  45,  45)

     Smooth grid:     5497 G-vectors     FFT dimensions: (  24,  24,  25)

     Estimated max dynamical RAM per process >      45.87 MB

     Estimated total dynamical RAM >     366.94 MB

     The potential is recalculated from file :
     ./tmp/_ph0/mob2.save/charge-density

     Starting wfcs are    0 atomic +   20 random wfcs

     Band Structure Calculation
     Davidson diagonalization with overlap

     ethr =  5.26E-11,  avg # of iterations = 19.9

     total cpu time spent up to now is       76.5 secs

     End of band structure calculation

     Number of k-points >= 100: set verbosity='high' to print the bands.

     the Fermi energy is    18.4774 ev

     Phonon calc for qp05                                                       

     bravais-lattice index     =            4
     lattice parameter (alat)  =       5.8733  a.u.
     unit-cell volume          =     187.8355 (a.u.)^3
     number of atoms/cell      =            3
     number of atomic types    =            2
     kinetic-energy cut-off    =      36.0000  Ry
     charge density cut-off    =     504.0000  Ry
     convergence threshold     =      1.0E-14
     beta                      =       0.7000
     number of iterations used =            4
     Exchange-correlation= PBE
                           (   1   4   3   4   0   0   0)


     celldm(1)=    5.87334  celldm(2)=    0.00000  celldm(3)=    1.07051
     celldm(4)=    0.00000  celldm(5)=    0.00000  celldm(6)=    0.00000

     crystal axes: (cart. coord. in units of alat)
               a(1) = (  1.0000  0.0000  0.0000 )  
               a(2) = ( -0.5000  0.8660  0.0000 )  
               a(3) = (  0.0000  0.0000  1.0705 )  

     reciprocal axes: (cart. coord. in units 2 pi/alat)
               b(1) = (  1.0000  0.5774  0.0000 )  
               b(2) = (  0.0000  1.1547  0.0000 )  
               b(3) = (  0.0000  0.0000  0.9341 )  


     Atoms inside the unit cell: 

     Cartesian axes

     site n.  atom      mass           positions (alat units)
        1     Mo  92.9060   tau(    1) = (    0.00000    0.00000    0.00000  )
        2     B   10.8100   tau(    2) = (    0.50000    0.28868    0.53526  )
        3     B   10.8100   tau(    3) = (    0.00000    0.57735    0.53526  )

     Computing dynamical matrix for 
                    q = (   0.3333333   0.5773503   0.0000000 )
 
     12 Sym.Ops. (no q -> -q+G )


     G cutoff =  440.3929  (   4486 G-vectors)     FFT grid: ( 45, 45, 45)
     G cutoff =  125.8266  (    687 G-vectors)  smooth grid: ( 24, 24, 25)

     number of k points=  1152  Gaussian smearing, width (Ry)=  0.0150

     PseudoPot. # 1 for Xx read from file:
     /home/marcocarmonaga/Apps/qe-7.0/pseudo/Nb1.00Mo0.00.upf
     MD5 check sum: e4b562b21cfca1bf7e2ab47e57cae993
     Pseudo is Norm-conserving, Zval = 13.0
     Generated using virtual.x code
     Using radial grid of  602 points, 12 beta functions with: 
                l(1) =   0
                l(2) =   0
                l(3) =   1
                l(4) =   1
                l(5) =   2
                l(6) =   2
                l(7) =   0
                l(8) =   0
                l(9) =   1
               l(10) =   1
               l(11) =   2
               l(12) =   2

     PseudoPot. # 2 for B  read from file:
     /home/marcocarmonaga/Apps/qe-7.0/pseudo/B_ONCV_PBE-1.2.upf
     MD5 check sum: eb3cbeacc2d324d57d903df00f564d27
     Pseudo is Norm-conserving, Zval =  3.0
     Generated using ONCVPSP code by D. R. Hamann
     Using radial grid of  602 points,  4 beta functions with: 
                l(1) =   0
                l(2) =   0
                l(3) =   1
                l(4) =   1

     Mode symmetry, D_3h (-62m) point group:


     Atomic displacements:
     There are    6 irreducible representations

     Representation     1      1 modes -  To be done

     Representation     2      1 modes -  To be done

     Representation     3      2 modes -  To be done

     Representation     4      2 modes -  To be done

     Representation     5      1 modes -  To be done

     Representation     6      2 modes -  To be done



     Alpha used in Ewald sum =   2.8000
     PHONON       :   1m17.63s CPU   1m20.05s WALL



     Representation #   1 mode #   1

     Self-consistent Calculation

      iter #   1 total cpu time :    89.0 secs   av.it.:   6.7
      thresh= 1.000E-02 alpha_mix =  0.700 |ddv_scf|^2 =  3.318E-05

      iter #   2 total cpu time :   101.0 secs   av.it.:  12.1
      thresh= 5.760E-04 alpha_mix =  0.700 |ddv_scf|^2 =  4.547E-04

      iter #   3 total cpu time :   111.5 secs   av.it.:  10.2
      thresh= 2.132E-03 alpha_mix =  0.700 |ddv_scf|^2 =  1.843E-06

      iter #   4 total cpu time :   122.3 secs   av.it.:  10.7
      thresh= 1.358E-04 alpha_mix =  0.700 |ddv_scf|^2 =  4.396E-09

      iter #   5 total cpu time :   133.3 secs   av.it.:  10.9
      thresh= 6.630E-06 alpha_mix =  0.700 |ddv_scf|^2 =  3.391E-11

      iter #   6 total cpu time :   143.5 secs   av.it.:   9.9
      thresh= 5.824E-07 alpha_mix =  0.700 |ddv_scf|^2 =  2.727E-13

      iter #   7 total cpu time :   154.3 secs   av.it.:  10.7
      thresh= 5.222E-08 alpha_mix =  0.700 |ddv_scf|^2 =  2.564E-16

     End of self-consistent calculation

     Convergence has been achieved 


     Representation #   2 mode #   2

     Self-consistent Calculation

      iter #   1 total cpu time :   161.9 secs   av.it.:   4.7
      thresh= 1.000E-02 alpha_mix =  0.700 |ddv_scf|^2 =  2.599E-08

      iter #   2 total cpu time :   172.6 secs   av.it.:  10.5
      thresh= 1.612E-05 alpha_mix =  0.700 |ddv_scf|^2 =  2.545E-09

      iter #   3 total cpu time :   182.5 secs   av.it.:   9.6
      thresh= 5.045E-06 alpha_mix =  0.700 |ddv_scf|^2 =  3.098E-12

      iter #   4 total cpu time :   194.0 secs   av.it.:  11.5
      thresh= 1.760E-07 alpha_mix =  0.700 |ddv_scf|^2 =  2.316E-15

     End of self-consistent calculation

     Convergence has been achieved 


     Representation #   3 modes #   3   4

     Self-consistent Calculation

      iter #   1 total cpu time :   211.8 secs   av.it.:   6.7
      thresh= 1.000E-02 alpha_mix =  0.700 |ddv_scf|^2 =  1.961E-06

      iter #   2 total cpu time :   237.6 secs   av.it.:  13.3
      thresh= 1.400E-04 alpha_mix =  0.700 |ddv_scf|^2 =  4.844E-06

      iter #   3 total cpu time :   261.2 secs   av.it.:  12.0
      thresh= 2.201E-04 alpha_mix =  0.700 |ddv_scf|^2 =  7.296E-10

      iter #   4 total cpu time :   286.2 secs   av.it.:  12.8
      thresh= 2.701E-06 alpha_mix =  0.700 |ddv_scf|^2 =  5.353E-11

      iter #   5 total cpu time :   311.3 secs   av.it.:  13.0
      thresh= 7.317E-07 alpha_mix =  0.700 |ddv_scf|^2 =  3.763E-12

      iter #   6 total cpu time :   336.2 secs   av.it.:  12.9
      thresh= 1.940E-07 alpha_mix =  0.700 |ddv_scf|^2 =  1.824E-14

      iter #   7 total cpu time :   361.1 secs   av.it.:  12.8
      thresh= 1.351E-08 alpha_mix =  0.700 |ddv_scf|^2 =  7.400E-17

     End of self-consistent calculation

     Convergence has been achieved 


     Representation #   4 modes #   5   6

     Self-consistent Calculation

      iter #   1 total cpu time :   383.4 secs   av.it.:   8.8
      thresh= 1.000E-02 alpha_mix =  0.700 |ddv_scf|^2 =  3.535E-05

      iter #   2 total cpu time :   409.0 secs   av.it.:  13.2
      thresh= 5.945E-04 alpha_mix =  0.700 |ddv_scf|^2 =  8.055E-05

      iter #   3 total cpu time :   432.7 secs   av.it.:  11.9
      thresh= 8.975E-04 alpha_mix =  0.700 |ddv_scf|^2 =  1.046E-07

      iter #   4 total cpu time :   457.8 secs   av.it.:  12.9
      thresh= 3.234E-05 alpha_mix =  0.700 |ddv_scf|^2 =  2.653E-10

      iter #   5 total cpu time :   482.6 secs   av.it.:  12.7
      thresh= 1.629E-06 alpha_mix =  0.700 |ddv_scf|^2 =  7.752E-12

      iter #   6 total cpu time :   507.2 secs   av.it.:  12.6
      thresh= 2.784E-07 alpha_mix =  0.700 |ddv_scf|^2 =  2.921E-14

      iter #   7 total cpu time :   532.3 secs   av.it.:  13.0
      thresh= 1.709E-08 alpha_mix =  0.700 |ddv_scf|^2 =  2.112E-15

     End of self-consistent calculation

     Convergence has been achieved 


     Representation #   5 mode #   7

     Self-consistent Calculation

      iter #   1 total cpu time :   543.1 secs   av.it.:   7.9
      thresh= 1.000E-02 alpha_mix =  0.700 |ddv_scf|^2 =  1.205E-05

      iter #   2 total cpu time :   554.8 secs   av.it.:  11.9
      thresh= 3.472E-04 alpha_mix =  0.700 |ddv_scf|^2 =  1.318E-06

      iter #   3 total cpu time :   566.3 secs   av.it.:  11.7
      thresh= 1.148E-04 alpha_mix =  0.700 |ddv_scf|^2 =  1.242E-09

      iter #   4 total cpu time :   577.9 secs   av.it.:  11.6
      thresh= 3.524E-06 alpha_mix =  0.700 |ddv_scf|^2 =  5.057E-12

      iter #   5 total cpu time :   589.4 secs   av.it.:  11.6
      thresh= 2.249E-07 alpha_mix =  0.700 |ddv_scf|^2 =  1.063E-13

      iter #   6 total cpu time :   601.1 secs   av.it.:  11.8
      thresh= 3.260E-08 alpha_mix =  0.700 |ddv_scf|^2 =  1.085E-15

     End of self-consistent calculation

     Convergence has been achieved 


     Representation #   6 modes #   8   9

     Self-consistent Calculation

      iter #   1 total cpu time :   617.5 secs   av.it.:   5.9
      thresh= 1.000E-02 alpha_mix =  0.700 |ddv_scf|^2 =  7.543E-08

      iter #   2 total cpu time :   643.0 secs   av.it.:  13.2
      thresh= 2.746E-05 alpha_mix =  0.700 |ddv_scf|^2 =  2.541E-09

      iter #   3 total cpu time :   668.5 secs   av.it.:  13.1
      thresh= 5.041E-06 alpha_mix =  0.700 |ddv_scf|^2 =  1.077E-10

      iter #   4 total cpu time :   690.9 secs   av.it.:  11.2
      thresh= 1.038E-06 alpha_mix =  0.700 |ddv_scf|^2 =  1.722E-13

      iter #   5 total cpu time :   715.9 secs   av.it.:  12.8
      thresh= 4.149E-08 alpha_mix =  0.700 |ddv_scf|^2 =  3.792E-16

     End of self-consistent calculation

     Convergence has been achieved 
 
     Number of q in the star =    2
     List of q in the star:
          1   0.333333333   0.577350269   0.000000000
          2  -0.333333333  -0.577350269   0.000000000

     Diagonalizing the dynamical matrix

     q = (    0.333333333   0.577350269   0.000000000 ) 

 **************************************************************************
     freq (    1) =       5.816610 [THz] =     194.021227 [cm-1]
     freq (    2) =       6.783786 [THz] =     226.282733 [cm-1]
     freq (    3) =       6.783786 [THz] =     226.282733 [cm-1]
     freq (    4) =      14.292463 [THz] =     476.745233 [cm-1]
     freq (    5) =      14.292463 [THz] =     476.745233 [cm-1]
     freq (    6) =      17.199109 [THz] =     573.700539 [cm-1]
     freq (    7) =      20.586853 [THz] =     686.703512 [cm-1]
     freq (    8) =      20.586853 [THz] =     686.703512 [cm-1]
     freq (    9) =      23.932616 [THz] =     798.306154 [cm-1]
 **************************************************************************

     Mode symmetry, D_3h (-62m) point group:

     freq (   1-   1) =        194.0  [cm-1]   --> A''2               
     freq (   2-   3) =        226.3  [cm-1]   --> E'                 
     freq (   4-   5) =        476.7  [cm-1]   --> E''                
     freq (   6-   6) =        573.7  [cm-1]   --> A'_2               
     freq (   7-   8) =        686.7  [cm-1]   --> E'                 
     freq (   9-   9) =        798.3  [cm-1]   --> A'_1               
 
     init_run     :      0.08s CPU      0.09s WALL (       1 calls)
     electrons    :     74.23s CPU     76.42s WALL (       1 calls)

     Called by init_run:
     wfcinit      :      0.00s CPU      0.00s WALL (       1 calls)
     potinit      :      0.01s CPU      0.01s WALL (       1 calls)
     hinit0       :      0.02s CPU      0.03s WALL (       1 calls)

     Called by electrons:
     c_bands      :     74.19s CPU     76.38s WALL (       1 calls)
     v_of_rho     :      0.02s CPU      0.02s WALL (       2 calls)

     Called by c_bands:
     init_us_2    :      2.51s CPU      2.65s WALL (   29952 calls)
     init_us_2:cp :      2.43s CPU      2.58s WALL (   29952 calls)
     cegterg      :     70.16s CPU     72.21s WALL (    1448 calls)

     Called by *egterg:
     cdiaghg      :     28.72s CPU     29.44s WALL (   24126 calls)
     h_psi        :    473.37s CPU    502.80s WALL (  629174 calls)
     g_psi        :      0.14s CPU      0.15s WALL (   22974 calls)

     Called by h_psi:
     h_psi:calbec :     25.24s CPU     26.79s WALL (  629174 calls)
     vloc_psi     :    418.80s CPU    444.86s WALL (  629174 calls)
     add_vuspsi   :     23.06s CPU     24.57s WALL (  629174 calls)

     General routines
     calbec       :     44.43s CPU     47.23s WALL ( 1259270 calls)
     fft          :      0.27s CPU      0.30s WALL (     741 calls)
     ffts         :      0.41s CPU      0.42s WALL (    5350 calls)
     fftw         :    443.70s CPU    471.76s WALL ( 9496582 calls)
     interpolate  :      0.07s CPU      0.07s WALL (     112 calls)
 
     Parallel routines
 
     PHONON       :  11m15.80s CPU  11m56.52s WALL

     INITIALIZATION: 
     phq_setup    :      0.02s CPU      0.02s WALL (       1 calls)
     phq_init     :      2.72s CPU      2.74s WALL (       1 calls)
 
     phq_init     :      2.72s CPU      2.74s WALL (       1 calls)
     init_vloc    :      0.02s CPU      0.02s WALL (       2 calls)
     init_us_1    :      0.01s CPU      0.03s WALL (       2 calls)
     init_us_2    :      2.51s CPU      2.65s WALL (   29952 calls)
 
     DYNAMICAL MATRIX:
     dynmat0      :      2.43s CPU      2.44s WALL (       1 calls)
     phqscf       :    598.17s CPU    636.44s WALL (       1 calls)
     dynmatrix    :      0.00s CPU      0.00s WALL (       1 calls)
 
     phqscf       :    598.17s CPU    636.44s WALL (       1 calls)
     solve_linter :    595.55s CPU    633.76s WALL (       6 calls)
     drhodv       :      2.62s CPU      2.67s WALL (       6 calls)
 
     dynmat0      :      2.43s CPU      2.44s WALL (       1 calls)
     dynmat_us    :      2.42s CPU      2.43s WALL (       1 calls)
     d2ionq       :      0.00s CPU      0.00s WALL (       1 calls)
 
     dynmat_us    :      2.42s CPU      2.43s WALL (       1 calls)
 
     phqscf       :    598.17s CPU    636.44s WALL (       1 calls)
     solve_linter :    595.55s CPU    633.76s WALL (       6 calls)
 
     solve_linter :    595.55s CPU    633.76s WALL (       6 calls)
     dvqpsi_us    :     18.24s CPU     18.93s WALL (    5184 calls)
     sth_kernel   :    572.79s CPU    610.28s WALL (      36 calls)
     apply_dpot_b :     30.50s CPU     32.62s WALL (   26496 calls)
     ortho        :      2.88s CPU      3.08s WALL (   31680 calls)
     cgsolve      :    499.49s CPU    531.76s WALL (   31680 calls)
     incdrhoscf   :     34.45s CPU     36.96s WALL (   31680 calls)
     dv_of_drho   :      0.50s CPU      0.50s WALL (      55 calls)
     mix_pot      :      0.11s CPU      0.11s WALL (      36 calls)
     psymdvscf    :      3.47s CPU      3.48s WALL (      36 calls)
 
     dvqpsi_us    :     18.24s CPU     18.93s WALL (    5184 calls)
     dvqpsi_us_on :      6.55s CPU      6.78s WALL (    5184 calls)
 
     cgsolve      :    499.49s CPU    531.76s WALL (   31680 calls)
     ch_psi       :    485.74s CPU    516.99s WALL (  603600 calls)
 
     ch_psi       :    485.74s CPU    516.99s WALL (  603600 calls)
     h_psi        :    473.37s CPU    502.80s WALL (  629174 calls)
     last         :     40.18s CPU     42.76s WALL (  603600 calls)
 
     h_psi        :    473.37s CPU    502.80s WALL (  629174 calls)
     add_vuspsi   :     23.06s CPU     24.57s WALL (  629174 calls)
 
     incdrhoscf   :     34.45s CPU     36.96s WALL (   31680 calls)
 
 
      General routines
     calbec       :     44.43s CPU     47.23s WALL ( 1259270 calls)
     fft          :      0.27s CPU      0.30s WALL (     741 calls)
     ffts         :      0.41s CPU      0.42s WALL (    5350 calls)
     fftw         :    443.70s CPU    471.76s WALL ( 9496582 calls)
 
 
     PHONON       :  11m15.80s CPU  11m56.52s WALL

 
   This run was terminated on:   0:25:22  31May2022            

=------------------------------------------------------------------------------=
   JOB DONE.
=------------------------------------------------------------------------------=
