
     Program PHONON v.7.0 starts on 30May2022 at 20: 9:18 

     This program is part of the open-source Quantum ESPRESSO suite
     for quantum simulation of materials; please cite
         "P. Giannozzi et al., J. Phys.:Condens. Matter 21 395502 (2009);
         "P. Giannozzi et al., J. Phys.:Condens. Matter 29 465901 (2017);
         "P. Giannozzi et al., J. Chem. Phys. 152 154105 (2020);
          URL http://www.quantum-espresso.org", 
     in publications or presentations arising from this work. More details at
     http://www.quantum-espresso.org/quote

     Parallel version (MPI), running on     8 processors

     MPI processes distributed on     1 nodes
     R & G space division:  proc/nbgrp/npool/nimage =       8
     2197 MiB available memory on the printing compute node when the environment starts
 
     Reading input from mob2_fonon_03.in

     Reading xml data from directory:

     ./tmp/mob2.save/

     IMPORTANT: XC functional enforced from input :
     Exchange-correlation= PBE
                           (   1   4   3   4   0   0   0)
     Any further DFT definition will be discarded
     Please, verify this is what you really want

 
     Parallelization info
     --------------------
     sticks:   dense  smooth     PW     G-vecs:    dense   smooth      PW
     Min         148      43     13                 4484      685     127
     Max         149      44     14                 4489      688     132
     Sum        1189     349    109                35901     5497    1033
 
     Using Slab Decomposition
 
     Reading collected, re-writing distributed wavefunctions


     Dynamical matrices for ( 3, 3, 3)  uniform grid of q-points
     (   6 q-points):
       N         xq(1)         xq(2)         xq(3) 
       1   0.000000000   0.000000000   0.000000000
       2   0.000000000   0.000000000   0.311376641
       3   0.000000000   0.384900179   0.000000000
       4   0.000000000   0.384900179   0.311376641
       5   0.333333333   0.577350269   0.000000000
       6   0.333333333   0.577350269   0.311376641

     Calculation of q =    0.0000000   0.3849002   0.0000000

     Subspace diagonalization in iterative solution of the eigenvalue problem:
     a serial algorithm will be used

 
     Parallelization info
     --------------------
     sticks:   dense  smooth     PW     G-vecs:    dense   smooth      PW
     Min         148      43     15                 4484      685     147
     Max         149      44     16                 4489      688     150
     Sum        1189     349    121                35901     5497    1179
 
     Using Slab Decomposition
 

     Title: 
     Phonon calc for qp03                                                       


     bravais-lattice index     =            4
     lattice parameter (alat)  =       5.8733  a.u.
     unit-cell volume          =     187.8355 (a.u.)^3
     number of atoms/cell      =            3
     number of atomic types    =            2
     number of electrons       =        19.00
     number of Kohn-Sham states=           20
     kinetic-energy cutoff     =      36.0000  Ry
     charge density cutoff     =     504.0000  Ry
     Exchange-correlation= PBE
                           (   1   4   3   4   0   0   0)

     celldm(1)=   5.873335  celldm(2)=   0.000000  celldm(3)=   1.070515
     celldm(4)=   0.000000  celldm(5)=   0.000000  celldm(6)=   0.000000

     crystal axes: (cart. coord. in units of alat)
               a(1) = (   1.000000   0.000000   0.000000 )  
               a(2) = (  -0.500000   0.866025   0.000000 )  
               a(3) = (   0.000000   0.000000   1.070515 )  

     reciprocal axes: (cart. coord. in units 2 pi/alat)
               b(1) = (  1.000000  0.577350  0.000000 )  
               b(2) = (  0.000000  1.154701  0.000000 )  
               b(3) = (  0.000000  0.000000  0.934130 )  


     PseudoPot. # 1 for Xx read from file:
     /home/marcocarmonaga/Apps/qe-7.0/pseudo/Nb1.00Mo0.00.upf
     MD5 check sum: e4b562b21cfca1bf7e2ab47e57cae993
     Pseudo is Norm-conserving, Zval = 13.0
     Generated using virtual.x code
     Using radial grid of  602 points, 12 beta functions with: 
                l(1) =   0
                l(2) =   0
                l(3) =   1
                l(4) =   1
                l(5) =   2
                l(6) =   2
                l(7) =   0
                l(8) =   0
                l(9) =   1
               l(10) =   1
               l(11) =   2
               l(12) =   2

     PseudoPot. # 2 for B  read from file:
     /home/marcocarmonaga/Apps/qe-7.0/pseudo/B_ONCV_PBE-1.2.upf
     MD5 check sum: eb3cbeacc2d324d57d903df00f564d27
     Pseudo is Norm-conserving, Zval =  3.0
     Generated using ONCVPSP code by D. R. Hamann
     Using radial grid of  602 points,  4 beta functions with: 
                l(1) =   0
                l(2) =   0
                l(3) =   1
                l(4) =   1

     atomic species   valence    mass     pseudopotential
        Mo            13.00    92.90600     Xx( 1.00)
        B              3.00    10.81000     B ( 1.00)

     24 Sym. Ops., with inversion, found



   Cartesian axes

     site n.     atom                  positions (alat units)
         1           Mo  tau(   1) = (   0.0000000   0.0000000   0.0000000  )
         2           B   tau(   2) = (   0.5000000   0.2886751   0.5352574  )
         3           B   tau(   3) = (   0.0000000   0.5773503   0.5352574  )

     number of k points=  3078  Gaussian smearing, width (Ry)=  0.0150

     Number of k-points >= 100: set verbosity='high' to print them.

     Dense  grid:    35901 G-vectors     FFT dimensions: (  45,  45,  45)

     Smooth grid:     5497 G-vectors     FFT dimensions: (  24,  24,  25)

     Estimated max dynamical RAM per process >      95.65 MB

     Estimated total dynamical RAM >     765.20 MB

     The potential is recalculated from file :
     ./tmp/_ph0/mob2.save/charge-density

     Starting wfcs are    0 atomic +   20 random wfcs

     Band Structure Calculation
     Davidson diagonalization with overlap

     ethr =  5.26E-11,  avg # of iterations = 20.0

     total cpu time spent up to now is      206.4 secs

     End of band structure calculation

     Number of k-points >= 100: set verbosity='high' to print the bands.

     the Fermi energy is    18.4774 ev

     Phonon calc for qp03                                                       

     bravais-lattice index     =            4
     lattice parameter (alat)  =       5.8733  a.u.
     unit-cell volume          =     187.8355 (a.u.)^3
     number of atoms/cell      =            3
     number of atomic types    =            2
     kinetic-energy cut-off    =      36.0000  Ry
     charge density cut-off    =     504.0000  Ry
     convergence threshold     =      1.0E-14
     beta                      =       0.7000
     number of iterations used =            4
     Exchange-correlation= PBE
                           (   1   4   3   4   0   0   0)


     celldm(1)=    5.87334  celldm(2)=    0.00000  celldm(3)=    1.07051
     celldm(4)=    0.00000  celldm(5)=    0.00000  celldm(6)=    0.00000

     crystal axes: (cart. coord. in units of alat)
               a(1) = (  1.0000  0.0000  0.0000 )  
               a(2) = ( -0.5000  0.8660  0.0000 )  
               a(3) = (  0.0000  0.0000  1.0705 )  

     reciprocal axes: (cart. coord. in units 2 pi/alat)
               b(1) = (  1.0000  0.5774  0.0000 )  
               b(2) = (  0.0000  1.1547  0.0000 )  
               b(3) = (  0.0000  0.0000  0.9341 )  


     Atoms inside the unit cell: 

     Cartesian axes

     site n.  atom      mass           positions (alat units)
        1     Mo  92.9060   tau(    1) = (    0.00000    0.00000    0.00000  )
        2     B   10.8100   tau(    2) = (    0.50000    0.28868    0.53526  )
        3     B   10.8100   tau(    3) = (    0.00000    0.57735    0.53526  )

     Computing dynamical matrix for 
                    q = (   0.0000000   0.3849002   0.0000000 )
 
      4 Sym.Ops. (no q -> -q+G )


     G cutoff =  440.3929  (   4486 G-vectors)     FFT grid: ( 45, 45, 45)
     G cutoff =  125.8266  (    687 G-vectors)  smooth grid: ( 24, 24, 25)

     number of k points=  3078  Gaussian smearing, width (Ry)=  0.0150

     PseudoPot. # 1 for Xx read from file:
     /home/marcocarmonaga/Apps/qe-7.0/pseudo/Nb1.00Mo0.00.upf
     MD5 check sum: e4b562b21cfca1bf7e2ab47e57cae993
     Pseudo is Norm-conserving, Zval = 13.0
     Generated using virtual.x code
     Using radial grid of  602 points, 12 beta functions with: 
                l(1) =   0
                l(2) =   0
                l(3) =   1
                l(4) =   1
                l(5) =   2
                l(6) =   2
                l(7) =   0
                l(8) =   0
                l(9) =   1
               l(10) =   1
               l(11) =   2
               l(12) =   2

     PseudoPot. # 2 for B  read from file:
     /home/marcocarmonaga/Apps/qe-7.0/pseudo/B_ONCV_PBE-1.2.upf
     MD5 check sum: eb3cbeacc2d324d57d903df00f564d27
     Pseudo is Norm-conserving, Zval =  3.0
     Generated using ONCVPSP code by D. R. Hamann
     Using radial grid of  602 points,  4 beta functions with: 
                l(1) =   0
                l(2) =   0
                l(3) =   1
                l(4) =   1

     Mode symmetry, C_2v (mm2)  point group:


     Atomic displacements:
     There are    9 irreducible representations

     Representation     1      1 modes -  To be done

     Representation     2      1 modes -  To be done

     Representation     3      1 modes -  To be done

     Representation     4      1 modes -  To be done

     Representation     5      1 modes -  To be done

     Representation     6      1 modes -  To be done

     Representation     7      1 modes -  To be done

     Representation     8      1 modes -  To be done

     Representation     9      1 modes -  To be done



     Alpha used in Ewald sum =   2.8000
     PHONON       :   3m27.69s CPU   3m34.43s WALL



     Representation #   1 mode #   1

     Self-consistent Calculation

      iter #   1 total cpu time :   239.9 secs   av.it.:   7.3
      thresh= 1.000E-02 alpha_mix =  0.700 |ddv_scf|^2 =  2.392E-04

      iter #   2 total cpu time :   272.3 secs   av.it.:  12.1
      thresh= 1.546E-03 alpha_mix =  0.700 |ddv_scf|^2 =  1.311E-02

      iter #   3 total cpu time :   298.5 secs   av.it.:   9.2
      thresh= 1.000E-02 alpha_mix =  0.700 |ddv_scf|^2 =  4.824E-06

      iter #   4 total cpu time :   330.0 secs   av.it.:  11.7
      thresh= 2.196E-04 alpha_mix =  0.700 |ddv_scf|^2 =  8.242E-07

      iter #   5 total cpu time :   360.5 secs   av.it.:  11.3
      thresh= 9.078E-05 alpha_mix =  0.700 |ddv_scf|^2 =  2.594E-08

      iter #   6 total cpu time :   392.1 secs   av.it.:  11.8
      thresh= 1.611E-05 alpha_mix =  0.700 |ddv_scf|^2 =  5.428E-10

      iter #   7 total cpu time :   423.9 secs   av.it.:  11.8
      thresh= 2.330E-06 alpha_mix =  0.700 |ddv_scf|^2 =  7.668E-09

      iter #   8 total cpu time :   450.5 secs   av.it.:   9.5
      thresh= 8.757E-06 alpha_mix =  0.700 |ddv_scf|^2 =  4.286E-11

      iter #   9 total cpu time :   481.5 secs   av.it.:  11.5
      thresh= 6.547E-07 alpha_mix =  0.700 |ddv_scf|^2 =  1.548E-10

      iter #  10 total cpu time :   508.6 secs   av.it.:   9.7
      thresh= 1.244E-06 alpha_mix =  0.700 |ddv_scf|^2 =  1.200E-12

      iter #  11 total cpu time :   541.6 secs   av.it.:  12.4
      thresh= 1.096E-07 alpha_mix =  0.700 |ddv_scf|^2 =  1.853E-12

      iter #  12 total cpu time :   572.0 secs   av.it.:  11.3
      thresh= 1.361E-07 alpha_mix =  0.700 |ddv_scf|^2 =  5.763E-13

      iter #  13 total cpu time :   601.9 secs   av.it.:  11.0
      thresh= 7.591E-08 alpha_mix =  0.700 |ddv_scf|^2 =  1.630E-14

      iter #  14 total cpu time :   633.5 secs   av.it.:  11.8
      thresh= 1.277E-08 alpha_mix =  0.700 |ddv_scf|^2 =  2.813E-14

      iter #  15 total cpu time :   662.1 secs   av.it.:  10.4
      thresh= 1.677E-08 alpha_mix =  0.700 |ddv_scf|^2 =  1.708E-16

     End of self-consistent calculation

     Convergence has been achieved 


     Representation #   2 mode #   2

     Self-consistent Calculation

      iter #   1 total cpu time :   694.1 secs   av.it.:   9.4
      thresh= 1.000E-02 alpha_mix =  0.700 |ddv_scf|^2 =  3.788E-03

      iter #   2 total cpu time :   726.4 secs   av.it.:  12.0
      thresh= 6.155E-03 alpha_mix =  0.700 |ddv_scf|^2 =  1.931E-01

      iter #   3 total cpu time :   756.9 secs   av.it.:  11.2
      thresh= 1.000E-02 alpha_mix =  0.700 |ddv_scf|^2 =  3.588E-04

      iter #   4 total cpu time :   786.7 secs   av.it.:  10.9
      thresh= 1.894E-03 alpha_mix =  0.700 |ddv_scf|^2 =  3.431E-05

      iter #   5 total cpu time :   815.9 secs   av.it.:  10.7
      thresh= 5.857E-04 alpha_mix =  0.700 |ddv_scf|^2 =  9.376E-07

      iter #   6 total cpu time :   846.1 secs   av.it.:  11.1
      thresh= 9.683E-05 alpha_mix =  0.700 |ddv_scf|^2 =  2.163E-08

      iter #   7 total cpu time :   875.6 secs   av.it.:  10.8
      thresh= 1.471E-05 alpha_mix =  0.700 |ddv_scf|^2 =  2.482E-11

      iter #   8 total cpu time :   908.6 secs   av.it.:  12.4
      thresh= 4.982E-07 alpha_mix =  0.700 |ddv_scf|^2 =  2.306E-11

      iter #   9 total cpu time :   939.7 secs   av.it.:  11.5
      thresh= 4.802E-07 alpha_mix =  0.700 |ddv_scf|^2 =  1.665E-10

      iter #  10 total cpu time :   967.1 secs   av.it.:   9.8
      thresh= 1.291E-06 alpha_mix =  0.700 |ddv_scf|^2 =  5.714E-12

      iter #  11 total cpu time :   998.2 secs   av.it.:  11.5
      thresh= 2.390E-07 alpha_mix =  0.700 |ddv_scf|^2 =  2.586E-12

      iter #  12 total cpu time :  1025.8 secs   av.it.:   9.9
      thresh= 1.608E-07 alpha_mix =  0.700 |ddv_scf|^2 =  8.166E-13

      iter #  13 total cpu time :  1055.2 secs   av.it.:  10.8
      thresh= 9.037E-08 alpha_mix =  0.700 |ddv_scf|^2 =  1.670E-13

      iter #  14 total cpu time :  1084.8 secs   av.it.:  10.9
      thresh= 4.087E-08 alpha_mix =  0.700 |ddv_scf|^2 =  4.256E-15

     End of self-consistent calculation

     Convergence has been achieved 


     Representation #   3 mode #   3

     Self-consistent Calculation

      iter #   1 total cpu time :  1110.6 secs   av.it.:   7.3
      thresh= 1.000E-02 alpha_mix =  0.700 |ddv_scf|^2 =  2.392E-04

      iter #   2 total cpu time :  1143.0 secs   av.it.:  12.1
      thresh= 1.546E-03 alpha_mix =  0.700 |ddv_scf|^2 =  1.311E-02

      iter #   3 total cpu time :  1169.2 secs   av.it.:   9.2
      thresh= 1.000E-02 alpha_mix =  0.700 |ddv_scf|^2 =  4.824E-06

      iter #   4 total cpu time :  1200.7 secs   av.it.:  11.7
      thresh= 2.196E-04 alpha_mix =  0.700 |ddv_scf|^2 =  8.242E-07

      iter #   5 total cpu time :  1231.3 secs   av.it.:  11.3
      thresh= 9.078E-05 alpha_mix =  0.700 |ddv_scf|^2 =  2.594E-08

      iter #   6 total cpu time :  1263.0 secs   av.it.:  11.8
      thresh= 1.610E-05 alpha_mix =  0.700 |ddv_scf|^2 =  5.341E-10

      iter #   7 total cpu time :  1294.6 secs   av.it.:  11.8
      thresh= 2.311E-06 alpha_mix =  0.700 |ddv_scf|^2 =  7.657E-09

      iter #   8 total cpu time :  1321.3 secs   av.it.:   9.5
      thresh= 8.750E-06 alpha_mix =  0.700 |ddv_scf|^2 =  4.299E-11

      iter #   9 total cpu time :  1352.3 secs   av.it.:  11.5
      thresh= 6.556E-07 alpha_mix =  0.700 |ddv_scf|^2 =  1.548E-10

      iter #  10 total cpu time :  1379.5 secs   av.it.:   9.7
      thresh= 1.244E-06 alpha_mix =  0.700 |ddv_scf|^2 =  1.200E-12

      iter #  11 total cpu time :  1412.4 secs   av.it.:  12.4
      thresh= 1.096E-07 alpha_mix =  0.700 |ddv_scf|^2 =  1.851E-12

      iter #  12 total cpu time :  1443.3 secs   av.it.:  11.3
      thresh= 1.361E-07 alpha_mix =  0.700 |ddv_scf|^2 =  5.774E-13

      iter #  13 total cpu time :  1473.1 secs   av.it.:  11.0
      thresh= 7.598E-08 alpha_mix =  0.700 |ddv_scf|^2 =  1.616E-14

      iter #  14 total cpu time :  1504.8 secs   av.it.:  11.8
      thresh= 1.271E-08 alpha_mix =  0.700 |ddv_scf|^2 =  2.822E-14

      iter #  15 total cpu time :  1533.3 secs   av.it.:  10.4
      thresh= 1.680E-08 alpha_mix =  0.700 |ddv_scf|^2 =  1.685E-16

     End of self-consistent calculation

     Convergence has been achieved 


     Representation #   4 mode #   4

     Self-consistent Calculation

      iter #   1 total cpu time :  1556.5 secs   av.it.:   6.2
      thresh= 1.000E-02 alpha_mix =  0.700 |ddv_scf|^2 =  5.138E-07

      iter #   2 total cpu time :  1588.8 secs   av.it.:  12.2
      thresh= 7.168E-05 alpha_mix =  0.700 |ddv_scf|^2 =  6.444E-08

      iter #   3 total cpu time :  1620.5 secs   av.it.:  11.9
      thresh= 2.538E-05 alpha_mix =  0.700 |ddv_scf|^2 =  8.928E-10

      iter #   4 total cpu time :  1652.6 secs   av.it.:  11.6
      thresh= 2.988E-06 alpha_mix =  0.700 |ddv_scf|^2 =  4.804E-11

      iter #   5 total cpu time :  1682.7 secs   av.it.:  11.2
      thresh= 6.931E-07 alpha_mix =  0.700 |ddv_scf|^2 =  6.491E-14

      iter #   6 total cpu time :  1716.2 secs   av.it.:  12.7
      thresh= 2.548E-08 alpha_mix =  0.700 |ddv_scf|^2 =  4.244E-16

     End of self-consistent calculation

     Convergence has been achieved 


     Representation #   5 mode #   5

     Self-consistent Calculation

      iter #   1 total cpu time :  1739.4 secs   av.it.:   6.2
      thresh= 1.000E-02 alpha_mix =  0.700 |ddv_scf|^2 =  5.138E-07

      iter #   2 total cpu time :  1771.7 secs   av.it.:  12.2
      thresh= 7.168E-05 alpha_mix =  0.700 |ddv_scf|^2 =  6.444E-08

      iter #   3 total cpu time :  1803.4 secs   av.it.:  11.9
      thresh= 2.539E-05 alpha_mix =  0.700 |ddv_scf|^2 =  8.928E-10

      iter #   4 total cpu time :  1834.4 secs   av.it.:  11.6
      thresh= 2.988E-06 alpha_mix =  0.700 |ddv_scf|^2 =  4.804E-11

      iter #   5 total cpu time :  1864.5 secs   av.it.:  11.2
      thresh= 6.931E-07 alpha_mix =  0.700 |ddv_scf|^2 =  6.491E-14

      iter #   6 total cpu time :  1897.9 secs   av.it.:  12.7
      thresh= 2.548E-08 alpha_mix =  0.700 |ddv_scf|^2 =  4.244E-16

     End of self-consistent calculation

     Convergence has been achieved 


     Representation #   6 mode #   6

     Self-consistent Calculation

      iter #   1 total cpu time :  1927.1 secs   av.it.:   8.2
      thresh= 1.000E-02 alpha_mix =  0.700 |ddv_scf|^2 =  1.445E-05

      iter #   2 total cpu time :  1959.2 secs   av.it.:  12.1
      thresh= 3.801E-04 alpha_mix =  0.700 |ddv_scf|^2 =  2.515E-06

      iter #   3 total cpu time :  1990.6 secs   av.it.:  11.8
      thresh= 1.586E-04 alpha_mix =  0.700 |ddv_scf|^2 =  2.040E-09

      iter #   4 total cpu time :  2023.0 secs   av.it.:  12.2
      thresh= 4.517E-06 alpha_mix =  0.700 |ddv_scf|^2 =  1.539E-10

      iter #   5 total cpu time :  2055.0 secs   av.it.:  11.6
      thresh= 1.241E-06 alpha_mix =  0.700 |ddv_scf|^2 =  8.273E-13

      iter #   6 total cpu time :  2091.3 secs   av.it.:  12.1
      thresh= 9.096E-08 alpha_mix =  0.700 |ddv_scf|^2 =  5.475E-15

     End of self-consistent calculation

     Convergence has been achieved 


     Representation #   7 mode #   7

     Self-consistent Calculation

      iter #   1 total cpu time :  2119.9 secs   av.it.:   8.2
      thresh= 1.000E-02 alpha_mix =  0.700 |ddv_scf|^2 =  1.562E-05

      iter #   2 total cpu time :  2151.5 secs   av.it.:  12.2
      thresh= 3.953E-04 alpha_mix =  0.700 |ddv_scf|^2 =  2.834E-06

      iter #   3 total cpu time :  2182.4 secs   av.it.:  11.8
      thresh= 1.684E-04 alpha_mix =  0.700 |ddv_scf|^2 =  2.386E-09

      iter #   4 total cpu time :  2214.5 secs   av.it.:  12.4
      thresh= 4.885E-06 alpha_mix =  0.700 |ddv_scf|^2 =  1.750E-10

      iter #   5 total cpu time :  2245.2 secs   av.it.:  11.8
      thresh= 1.323E-06 alpha_mix =  0.700 |ddv_scf|^2 =  1.246E-12

      iter #   6 total cpu time :  2276.2 secs   av.it.:  11.8
      thresh= 1.116E-07 alpha_mix =  0.700 |ddv_scf|^2 =  3.504E-14

      iter #   7 total cpu time :  2307.5 secs   av.it.:  12.0
      thresh= 1.872E-08 alpha_mix =  0.700 |ddv_scf|^2 =  4.156E-16

     End of self-consistent calculation

     Convergence has been achieved 


     Representation #   8 mode #   8

     Self-consistent Calculation

      iter #   1 total cpu time :  2330.1 secs   av.it.:   6.1
      thresh= 1.000E-02 alpha_mix =  0.700 |ddv_scf|^2 =  4.433E-07

      iter #   2 total cpu time :  2362.2 secs   av.it.:  12.4
      thresh= 6.658E-05 alpha_mix =  0.700 |ddv_scf|^2 =  4.957E-08

      iter #   3 total cpu time :  2393.8 secs   av.it.:  12.1
      thresh= 2.226E-05 alpha_mix =  0.700 |ddv_scf|^2 =  1.008E-09

      iter #   4 total cpu time :  2429.9 secs   av.it.:  11.9
      thresh= 3.175E-06 alpha_mix =  0.700 |ddv_scf|^2 =  5.828E-11

      iter #   5 total cpu time :  2460.7 secs   av.it.:  11.7
      thresh= 7.634E-07 alpha_mix =  0.700 |ddv_scf|^2 =  1.878E-13

      iter #   6 total cpu time :  2493.2 secs   av.it.:  12.5
      thresh= 4.333E-08 alpha_mix =  0.700 |ddv_scf|^2 =  8.059E-16

     End of self-consistent calculation

     Convergence has been achieved 


     Representation #   9 mode #   9

     Self-consistent Calculation

      iter #   1 total cpu time :  2515.8 secs   av.it.:   6.1
      thresh= 1.000E-02 alpha_mix =  0.700 |ddv_scf|^2 =  4.433E-07

      iter #   2 total cpu time :  2548.0 secs   av.it.:  12.4
      thresh= 6.658E-05 alpha_mix =  0.700 |ddv_scf|^2 =  4.957E-08

      iter #   3 total cpu time :  2579.5 secs   av.it.:  12.1
      thresh= 2.226E-05 alpha_mix =  0.700 |ddv_scf|^2 =  1.008E-09

      iter #   4 total cpu time :  2610.5 secs   av.it.:  11.9
      thresh= 3.175E-06 alpha_mix =  0.700 |ddv_scf|^2 =  5.828E-11

      iter #   5 total cpu time :  2641.0 secs   av.it.:  11.7
      thresh= 7.634E-07 alpha_mix =  0.700 |ddv_scf|^2 =  1.878E-13

      iter #   6 total cpu time :  2673.5 secs   av.it.:  12.5
      thresh= 4.333E-08 alpha_mix =  0.700 |ddv_scf|^2 =  8.059E-16

     End of self-consistent calculation

     Convergence has been achieved 
 
     Number of q in the star =    6
     List of q in the star:
          1   0.000000000   0.384900179   0.000000000
          2   0.333333333   0.192450090   0.000000000
          3  -0.333333333   0.192450090   0.000000000
          4  -0.333333333  -0.192450090   0.000000000
          5   0.000000000  -0.384900179   0.000000000
          6   0.333333333  -0.192450090   0.000000000

     Diagonalizing the dynamical matrix

     q = (    0.000000000   0.384900179   0.000000000 ) 

 **************************************************************************
     freq (    1) =       5.066806 [THz] =     169.010470 [cm-1]
     freq (    2) =       5.488953 [THz] =     183.091772 [cm-1]
     freq (    3) =       6.936299 [THz] =     231.370029 [cm-1]
     freq (    4) =      14.527302 [THz] =     484.578631 [cm-1]
     freq (    5) =      14.548822 [THz] =     485.296479 [cm-1]
     freq (    6) =      15.428721 [THz] =     514.646724 [cm-1]
     freq (    7) =      18.195017 [THz] =     606.920440 [cm-1]
     freq (    8) =      22.493279 [THz] =     750.295026 [cm-1]
     freq (    9) =      23.008003 [THz] =     767.464358 [cm-1]
 **************************************************************************

     Mode symmetry, C_2v (mm2)  point group:

     freq (   1-   1) =        169.0  [cm-1]   --> B_2  D_4  S_4      
     freq (   2-   2) =        183.1  [cm-1]   --> B_1  D_3  S_3      
     freq (   3-   3) =        231.4  [cm-1]   --> A_1  D_1  S_1      
     freq (   4-   4) =        484.6  [cm-1]   --> B_2  D_4  S_4      
     freq (   5-   5) =        485.3  [cm-1]   --> B_1  D_3  S_3      
     freq (   6-   6) =        514.6  [cm-1]   --> B_2  D_4  S_4      
     freq (   7-   7) =        606.9  [cm-1]   --> A_1  D_1  S_1      
     freq (   8-   8) =        750.3  [cm-1]   --> B_1  D_3  S_3      
     freq (   9-   9) =        767.5  [cm-1]   --> A_1  D_1  S_1      
 
     init_run     :      0.10s CPU      0.10s WALL (       1 calls)
     electrons    :    199.82s CPU    206.33s WALL (       1 calls)

     Called by init_run:
     wfcinit      :      0.00s CPU      0.00s WALL (       1 calls)
     potinit      :      0.01s CPU      0.01s WALL (       1 calls)
     hinit0       :      0.03s CPU      0.03s WALL (       1 calls)

     Called by electrons:
     c_bands      :    199.71s CPU    206.22s WALL (       1 calls)
     v_of_rho     :      0.02s CPU      0.02s WALL (       2 calls)

     Called by c_bands:
     init_us_2    :     12.99s CPU     13.81s WALL (  158517 calls)
     init_us_2:cp :     12.55s CPU     13.39s WALL (  158517 calls)
     cegterg      :    188.87s CPU    195.02s WALL (    3883 calls)

     Called by *egterg:
     cdiaghg      :     77.24s CPU     79.40s WALL (   64671 calls)
     h_psi        :   1785.64s CPU   1903.16s WALL ( 2400305 calls)
     g_psi        :      0.43s CPU      0.44s WALL (   61593 calls)

     Called by h_psi:
     h_psi:calbec :     97.02s CPU    103.35s WALL ( 2400305 calls)
     vloc_psi     :   1577.48s CPU   1681.67s WALL ( 2400305 calls)
     add_vuspsi   :     86.97s CPU     92.80s WALL ( 2400305 calls)

     General routines
     calbec       :    170.14s CPU    181.41s WALL ( 4802850 calls)
     fft          :      0.40s CPU      0.46s WALL (    1079 calls)
     ffts         :      1.36s CPU      1.52s WALL (   14096 calls)
     fftw         :   1680.10s CPU   1793.97s WALL (35573790 calls)
     interpolate  :      0.10s CPU      0.13s WALL (     164 calls)
 
     Parallel routines
 
     PHONON       :  41m51.40s CPU  44m34.49s WALL

     INITIALIZATION: 
     phq_setup    :      0.02s CPU      0.07s WALL (       1 calls)
     phq_init     :      7.14s CPU      7.20s WALL (       1 calls)
 
     phq_init     :      7.14s CPU      7.20s WALL (       1 calls)
     init_vloc    :      0.02s CPU      0.02s WALL (       2 calls)
     init_us_1    :      0.02s CPU      0.02s WALL (       2 calls)
     init_us_2    :     12.99s CPU     13.81s WALL (  158517 calls)
 
     DYNAMICAL MATRIX:
     dynmat0      :      6.36s CPU      6.41s WALL (       1 calls)
     phqscf       :   2303.70s CPU   2460.01s WALL (       1 calls)
     dynmatrix    :      0.00s CPU      0.00s WALL (       1 calls)
 
     phqscf       :   2303.70s CPU   2460.01s WALL (       1 calls)
     solve_linter :   2295.50s CPU   2451.67s WALL (       9 calls)
     drhodv       :      8.20s CPU      8.34s WALL (       9 calls)
 
     dynmat0      :      6.36s CPU      6.41s WALL (       1 calls)
     dynmat_us    :      6.36s CPU      6.40s WALL (       1 calls)
     d2ionq       :      0.00s CPU      0.00s WALL (       1 calls)
 
     dynmat_us    :      6.36s CPU      6.40s WALL (       1 calls)
 
     phqscf       :   2303.70s CPU   2460.01s WALL (       1 calls)
     solve_linter :   2295.50s CPU   2451.67s WALL (       9 calls)
 
     solve_linter :   2295.50s CPU   2451.67s WALL (       9 calls)
     dvqpsi_us    :     47.67s CPU     50.01s WALL (   13851 calls)
     sth_kernel   :   2242.97s CPU   2396.61s WALL (      81 calls)
     apply_dpot_b :    129.42s CPU    138.89s WALL (  110808 calls)
     ortho        :     12.15s CPU     13.00s WALL (  124659 calls)
     cgsolve      :   1936.32s CPU   2066.93s WALL (  124659 calls)
     incdrhoscf   :    137.29s CPU    148.02s WALL (  124659 calls)
     dv_of_drho   :      0.74s CPU      0.75s WALL (      81 calls)
     mix_pot      :      0.17s CPU      0.17s WALL (      81 calls)
     psymdvscf    :      2.54s CPU      2.60s WALL (      81 calls)
 
     dvqpsi_us    :     47.67s CPU     50.01s WALL (   13851 calls)
     dvqpsi_us_on :     16.40s CPU     17.09s WALL (   13851 calls)
 
     cgsolve      :   1936.32s CPU   2066.93s WALL (  124659 calls)
     ch_psi       :   1880.44s CPU   2006.72s WALL ( 2331751 calls)
 
     ch_psi       :   1880.44s CPU   2006.72s WALL ( 2331751 calls)
     h_psi        :   1785.64s CPU   1903.16s WALL ( 2400305 calls)
     last         :    158.02s CPU    168.65s WALL ( 2331751 calls)
 
     h_psi        :   1785.64s CPU   1903.16s WALL ( 2400305 calls)
     add_vuspsi   :     86.97s CPU     92.80s WALL ( 2400305 calls)
 
     incdrhoscf   :    137.29s CPU    148.02s WALL (  124659 calls)
 
 
      General routines
     calbec       :    170.14s CPU    181.41s WALL ( 4802850 calls)
     fft          :      0.40s CPU      0.46s WALL (    1079 calls)
     ffts         :      1.36s CPU      1.52s WALL (   14096 calls)
     fftw         :   1680.10s CPU   1793.97s WALL (35573790 calls)
 
 
     PHONON       :  41m51.40s CPU  44m34.49s WALL

 
   This run was terminated on:  20:53:52  30May2022            

=------------------------------------------------------------------------------=
   JOB DONE.
=------------------------------------------------------------------------------=
