
     Program PHONON v.7.0 starts on 31May2022 at  0:25:23 

     This program is part of the open-source Quantum ESPRESSO suite
     for quantum simulation of materials; please cite
         "P. Giannozzi et al., J. Phys.:Condens. Matter 21 395502 (2009);
         "P. Giannozzi et al., J. Phys.:Condens. Matter 29 465901 (2017);
         "P. Giannozzi et al., J. Chem. Phys. 152 154105 (2020);
          URL http://www.quantum-espresso.org", 
     in publications or presentations arising from this work. More details at
     http://www.quantum-espresso.org/quote

     Parallel version (MPI), running on     8 processors

     MPI processes distributed on     1 nodes
     R & G space division:  proc/nbgrp/npool/nimage =       8
     5290 MiB available memory on the printing compute node when the environment starts
 
     Reading input from mob2_fonon_06.in

     Reading xml data from directory:

     ./tmp/mob2.save/

     IMPORTANT: XC functional enforced from input :
     Exchange-correlation= PBE
                           (   1   4   3   4   0   0   0)
     Any further DFT definition will be discarded
     Please, verify this is what you really want

 
     Parallelization info
     --------------------
     sticks:   dense  smooth     PW     G-vecs:    dense   smooth      PW
     Min         148      43     13                 4484      685     127
     Max         149      44     14                 4489      688     132
     Sum        1189     349    109                35901     5497    1033
 
     Using Slab Decomposition
 
     Reading collected, re-writing distributed wavefunctions


     Dynamical matrices for ( 3, 3, 3)  uniform grid of q-points
     (   6 q-points):
       N         xq(1)         xq(2)         xq(3) 
       1   0.000000000   0.000000000   0.000000000
       2   0.000000000   0.000000000   0.311376641
       3   0.000000000   0.384900179   0.000000000
       4   0.000000000   0.384900179   0.311376641
       5   0.333333333   0.577350269   0.000000000
       6   0.333333333   0.577350269   0.311376641

     Calculation of q =    0.3333333   0.5773503   0.3113766

     Subspace diagonalization in iterative solution of the eigenvalue problem:
     a serial algorithm will be used

 
     Parallelization info
     --------------------
     sticks:   dense  smooth     PW     G-vecs:    dense   smooth      PW
     Min         148      43     16                 4484      685     175
     Max         149      44     18                 4489      688     178
     Sum        1189     349    139                35901     5497    1413
 
     Using Slab Decomposition
 

     Title: 
     Phonon calc for qp06                                                       


     bravais-lattice index     =            4
     lattice parameter (alat)  =       5.8733  a.u.
     unit-cell volume          =     187.8355 (a.u.)^3
     number of atoms/cell      =            3
     number of atomic types    =            2
     number of electrons       =        19.00
     number of Kohn-Sham states=           20
     kinetic-energy cutoff     =      36.0000  Ry
     charge density cutoff     =     504.0000  Ry
     Exchange-correlation= PBE
                           (   1   4   3   4   0   0   0)

     celldm(1)=   5.873335  celldm(2)=   0.000000  celldm(3)=   1.070515
     celldm(4)=   0.000000  celldm(5)=   0.000000  celldm(6)=   0.000000

     crystal axes: (cart. coord. in units of alat)
               a(1) = (   1.000000   0.000000   0.000000 )  
               a(2) = (  -0.500000   0.866025   0.000000 )  
               a(3) = (   0.000000   0.000000   1.070515 )  

     reciprocal axes: (cart. coord. in units 2 pi/alat)
               b(1) = (  1.000000  0.577350  0.000000 )  
               b(2) = (  0.000000  1.154701  0.000000 )  
               b(3) = (  0.000000  0.000000  0.934130 )  


     PseudoPot. # 1 for Xx read from file:
     /home/marcocarmonaga/Apps/qe-7.0/pseudo/Nb1.00Mo0.00.upf
     MD5 check sum: e4b562b21cfca1bf7e2ab47e57cae993
     Pseudo is Norm-conserving, Zval = 13.0
     Generated using virtual.x code
     Using radial grid of  602 points, 12 beta functions with: 
                l(1) =   0
                l(2) =   0
                l(3) =   1
                l(4) =   1
                l(5) =   2
                l(6) =   2
                l(7) =   0
                l(8) =   0
                l(9) =   1
               l(10) =   1
               l(11) =   2
               l(12) =   2

     PseudoPot. # 2 for B  read from file:
     /home/marcocarmonaga/Apps/qe-7.0/pseudo/B_ONCV_PBE-1.2.upf
     MD5 check sum: eb3cbeacc2d324d57d903df00f564d27
     Pseudo is Norm-conserving, Zval =  3.0
     Generated using ONCVPSP code by D. R. Hamann
     Using radial grid of  602 points,  4 beta functions with: 
                l(1) =   0
                l(2) =   0
                l(3) =   1
                l(4) =   1

     atomic species   valence    mass     pseudopotential
        Mo            13.00    92.90600     Xx( 1.00)
        B              3.00    10.81000     B ( 1.00)

     24 Sym. Ops., with inversion, found



   Cartesian axes

     site n.     atom                  positions (alat units)
         1           Mo  tau(   1) = (   0.0000000   0.0000000   0.0000000  )
         2           B   tau(   2) = (   0.5000000   0.2886751   0.5352574  )
         3           B   tau(   3) = (   0.0000000   0.5773503   0.5352574  )

     number of k points=  2304  Gaussian smearing, width (Ry)=  0.0150

     Number of k-points >= 100: set verbosity='high' to print them.

     Dense  grid:    35901 G-vectors     FFT dimensions: (  45,  45,  45)

     Smooth grid:     5497 G-vectors     FFT dimensions: (  24,  24,  25)

     Estimated max dynamical RAM per process >      75.79 MB

     Estimated total dynamical RAM >     606.34 MB

     The potential is recalculated from file :
     ./tmp/_ph0/mob2.save/charge-density

     Starting wfcs are    0 atomic +   20 random wfcs

     Band Structure Calculation
     Davidson diagonalization with overlap

     ethr =  5.26E-11,  avg # of iterations = 19.9

     total cpu time spent up to now is      152.7 secs

     End of band structure calculation

     Number of k-points >= 100: set verbosity='high' to print the bands.

     the Fermi energy is    18.4774 ev

     Phonon calc for qp06                                                       

     bravais-lattice index     =            4
     lattice parameter (alat)  =       5.8733  a.u.
     unit-cell volume          =     187.8355 (a.u.)^3
     number of atoms/cell      =            3
     number of atomic types    =            2
     kinetic-energy cut-off    =      36.0000  Ry
     charge density cut-off    =     504.0000  Ry
     convergence threshold     =      1.0E-14
     beta                      =       0.7000
     number of iterations used =            4
     Exchange-correlation= PBE
                           (   1   4   3   4   0   0   0)


     celldm(1)=    5.87334  celldm(2)=    0.00000  celldm(3)=    1.07051
     celldm(4)=    0.00000  celldm(5)=    0.00000  celldm(6)=    0.00000

     crystal axes: (cart. coord. in units of alat)
               a(1) = (  1.0000  0.0000  0.0000 )  
               a(2) = ( -0.5000  0.8660  0.0000 )  
               a(3) = (  0.0000  0.0000  1.0705 )  

     reciprocal axes: (cart. coord. in units 2 pi/alat)
               b(1) = (  1.0000  0.5774  0.0000 )  
               b(2) = (  0.0000  1.1547  0.0000 )  
               b(3) = (  0.0000  0.0000  0.9341 )  


     Atoms inside the unit cell: 

     Cartesian axes

     site n.  atom      mass           positions (alat units)
        1     Mo  92.9060   tau(    1) = (    0.00000    0.00000    0.00000  )
        2     B   10.8100   tau(    2) = (    0.50000    0.28868    0.53526  )
        3     B   10.8100   tau(    3) = (    0.00000    0.57735    0.53526  )

     Computing dynamical matrix for 
                    q = (   0.3333333   0.5773503   0.3113766 )
 
      6 Sym.Ops. (no q -> -q+G )


     G cutoff =  440.3929  (   4486 G-vectors)     FFT grid: ( 45, 45, 45)
     G cutoff =  125.8266  (    687 G-vectors)  smooth grid: ( 24, 24, 25)

     number of k points=  2304  Gaussian smearing, width (Ry)=  0.0150

     PseudoPot. # 1 for Xx read from file:
     /home/marcocarmonaga/Apps/qe-7.0/pseudo/Nb1.00Mo0.00.upf
     MD5 check sum: e4b562b21cfca1bf7e2ab47e57cae993
     Pseudo is Norm-conserving, Zval = 13.0
     Generated using virtual.x code
     Using radial grid of  602 points, 12 beta functions with: 
                l(1) =   0
                l(2) =   0
                l(3) =   1
                l(4) =   1
                l(5) =   2
                l(6) =   2
                l(7) =   0
                l(8) =   0
                l(9) =   1
               l(10) =   1
               l(11) =   2
               l(12) =   2

     PseudoPot. # 2 for B  read from file:
     /home/marcocarmonaga/Apps/qe-7.0/pseudo/B_ONCV_PBE-1.2.upf
     MD5 check sum: eb3cbeacc2d324d57d903df00f564d27
     Pseudo is Norm-conserving, Zval =  3.0
     Generated using ONCVPSP code by D. R. Hamann
     Using radial grid of  602 points,  4 beta functions with: 
                l(1) =   0
                l(2) =   0
                l(3) =   1
                l(4) =   1

     Mode symmetry, C_3v (3m)   point group:


     Atomic displacements:
     There are    6 irreducible representations

     Representation     1      1 modes -  To be done

     Representation     2      1 modes -  To be done

     Representation     3      1 modes -  To be done

     Representation     4      2 modes -  To be done

     Representation     5      2 modes -  To be done

     Representation     6      2 modes -  To be done



     Alpha used in Ewald sum =   2.8000
     PHONON       :   2m34.37s CPU   2m38.62s WALL



     Representation #   1 mode #   1

     Self-consistent Calculation

      iter #   1 total cpu time :   179.8 secs   av.it.:   8.4
      thresh= 1.000E-02 alpha_mix =  0.700 |ddv_scf|^2 =  4.866E-05

      iter #   2 total cpu time :   203.5 secs   av.it.:  12.2
      thresh= 6.975E-04 alpha_mix =  0.700 |ddv_scf|^2 =  9.966E-05

      iter #   3 total cpu time :   225.8 secs   av.it.:  11.2
      thresh= 9.983E-04 alpha_mix =  0.700 |ddv_scf|^2 =  3.614E-05

      iter #   4 total cpu time :   247.3 secs   av.it.:  10.7
      thresh= 6.012E-04 alpha_mix =  0.700 |ddv_scf|^2 =  5.114E-08

      iter #   5 total cpu time :   269.6 secs   av.it.:  11.2
      thresh= 2.261E-05 alpha_mix =  0.700 |ddv_scf|^2 =  3.537E-10

      iter #   6 total cpu time :   292.5 secs   av.it.:  11.6
      thresh= 1.881E-06 alpha_mix =  0.700 |ddv_scf|^2 =  3.388E-12

      iter #   7 total cpu time :   314.9 secs   av.it.:  11.3
      thresh= 1.841E-07 alpha_mix =  0.700 |ddv_scf|^2 =  4.441E-14

      iter #   8 total cpu time :   338.2 secs   av.it.:  11.9
      thresh= 2.107E-08 alpha_mix =  0.700 |ddv_scf|^2 =  7.773E-16

     End of self-consistent calculation

     Convergence has been achieved 


     Representation #   2 mode #   2

     Self-consistent Calculation

      iter #   1 total cpu time :   356.5 secs   av.it.:   6.8
      thresh= 1.000E-02 alpha_mix =  0.700 |ddv_scf|^2 =  9.822E-06

      iter #   2 total cpu time :   380.5 secs   av.it.:  12.3
      thresh= 3.134E-04 alpha_mix =  0.700 |ddv_scf|^2 =  5.858E-05

      iter #   3 total cpu time :   402.0 secs   av.it.:  10.7
      thresh= 7.654E-04 alpha_mix =  0.700 |ddv_scf|^2 =  2.741E-06

      iter #   4 total cpu time :   424.0 secs   av.it.:  11.1
      thresh= 1.656E-04 alpha_mix =  0.700 |ddv_scf|^2 =  1.534E-09

      iter #   5 total cpu time :   446.9 secs   av.it.:  11.6
      thresh= 3.916E-06 alpha_mix =  0.700 |ddv_scf|^2 =  1.250E-10

      iter #   6 total cpu time :   469.1 secs   av.it.:  11.3
      thresh= 1.118E-06 alpha_mix =  0.700 |ddv_scf|^2 =  2.930E-12

      iter #   7 total cpu time :   491.3 secs   av.it.:  11.2
      thresh= 1.712E-07 alpha_mix =  0.700 |ddv_scf|^2 =  5.209E-15

     End of self-consistent calculation

     Convergence has been achieved 


     Representation #   3 mode #   3

     Self-consistent Calculation

      iter #   1 total cpu time :   506.2 secs   av.it.:   4.7
      thresh= 1.000E-02 alpha_mix =  0.700 |ddv_scf|^2 =  2.578E-08

      iter #   2 total cpu time :   527.2 secs   av.it.:  10.4
      thresh= 1.606E-05 alpha_mix =  0.700 |ddv_scf|^2 =  2.540E-09

      iter #   3 total cpu time :   546.9 secs   av.it.:   9.7
      thresh= 5.040E-06 alpha_mix =  0.700 |ddv_scf|^2 =  2.689E-12

      iter #   4 total cpu time :   569.8 secs   av.it.:  11.6
      thresh= 1.640E-07 alpha_mix =  0.700 |ddv_scf|^2 =  2.080E-15

     End of self-consistent calculation

     Convergence has been achieved 


     Representation #   4 modes #   4   5

     Self-consistent Calculation

      iter #   1 total cpu time :   605.4 secs   av.it.:   6.7
      thresh= 1.000E-02 alpha_mix =  0.700 |ddv_scf|^2 =  5.682E-07

      iter #   2 total cpu time :   657.9 secs   av.it.:  13.7
      thresh= 7.538E-05 alpha_mix =  0.700 |ddv_scf|^2 =  6.439E-07

      iter #   3 total cpu time :   707.2 secs   av.it.:  12.8
      thresh= 8.024E-05 alpha_mix =  0.700 |ddv_scf|^2 =  8.910E-09

      iter #   4 total cpu time :   757.7 secs   av.it.:  13.1
      thresh= 9.439E-06 alpha_mix =  0.700 |ddv_scf|^2 =  1.709E-10

      iter #   5 total cpu time :   807.8 secs   av.it.:  13.0
      thresh= 1.307E-06 alpha_mix =  0.700 |ddv_scf|^2 =  5.498E-12

      iter #   6 total cpu time :   857.3 secs   av.it.:  12.9
      thresh= 2.345E-07 alpha_mix =  0.700 |ddv_scf|^2 =  1.542E-14

      iter #   7 total cpu time :   909.6 secs   av.it.:  13.7
      thresh= 1.242E-08 alpha_mix =  0.700 |ddv_scf|^2 =  1.309E-16

     End of self-consistent calculation

     Convergence has been achieved 


     Representation #   5 modes #   6   7

     Self-consistent Calculation

      iter #   1 total cpu time :   946.1 secs   av.it.:   6.9
      thresh= 1.000E-02 alpha_mix =  0.700 |ddv_scf|^2 =  8.693E-07

      iter #   2 total cpu time :   998.4 secs   av.it.:  13.7
      thresh= 9.324E-05 alpha_mix =  0.700 |ddv_scf|^2 =  1.226E-06

      iter #   3 total cpu time :  1047.3 secs   av.it.:  12.6
      thresh= 1.107E-04 alpha_mix =  0.700 |ddv_scf|^2 =  4.072E-09

      iter #   4 total cpu time :  1098.4 secs   av.it.:  13.3
      thresh= 6.381E-06 alpha_mix =  0.700 |ddv_scf|^2 =  1.834E-10

      iter #   5 total cpu time :  1148.7 secs   av.it.:  13.1
      thresh= 1.354E-06 alpha_mix =  0.700 |ddv_scf|^2 =  5.328E-12

      iter #   6 total cpu time :  1198.5 secs   av.it.:  12.9
      thresh= 2.308E-07 alpha_mix =  0.700 |ddv_scf|^2 =  1.384E-14

      iter #   7 total cpu time :  1250.9 secs   av.it.:  13.7
      thresh= 1.176E-08 alpha_mix =  0.700 |ddv_scf|^2 =  9.111E-17

     End of self-consistent calculation

     Convergence has been achieved 


     Representation #   6 modes #   8   9

     Self-consistent Calculation

      iter #   1 total cpu time :  1295.0 secs   av.it.:   8.7
      thresh= 1.000E-02 alpha_mix =  0.700 |ddv_scf|^2 =  1.722E-05

      iter #   2 total cpu time :  1346.2 secs   av.it.:  13.4
      thresh= 4.149E-04 alpha_mix =  0.700 |ddv_scf|^2 =  1.930E-05

      iter #   3 total cpu time :  1394.5 secs   av.it.:  12.5
      thresh= 4.393E-04 alpha_mix =  0.700 |ddv_scf|^2 =  2.400E-07

      iter #   4 total cpu time :  1443.7 secs   av.it.:  12.7
      thresh= 4.899E-05 alpha_mix =  0.700 |ddv_scf|^2 =  4.587E-10

      iter #   5 total cpu time :  1494.4 secs   av.it.:  13.2
      thresh= 2.142E-06 alpha_mix =  0.700 |ddv_scf|^2 =  1.942E-11

      iter #   6 total cpu time :  1543.5 secs   av.it.:  12.7
      thresh= 4.407E-07 alpha_mix =  0.700 |ddv_scf|^2 =  9.121E-14

      iter #   7 total cpu time :  1593.6 secs   av.it.:  13.0
      thresh= 3.020E-08 alpha_mix =  0.700 |ddv_scf|^2 =  4.173E-15

     End of self-consistent calculation

     Convergence has been achieved 
 
     Number of q in the star =    4
     List of q in the star:
          1   0.333333333   0.577350269   0.311376641
          2   0.333333333   0.577350269  -0.311376641
          3  -0.333333333  -0.577350269  -0.311376641
          4  -0.333333333   0.577350269   0.311376641

     Diagonalizing the dynamical matrix

     q = (    0.333333333   0.577350269   0.311376641 ) 

 **************************************************************************
     freq (    1) =       5.621083 [THz] =     187.499136 [cm-1]
     freq (    2) =       6.794202 [THz] =     226.630169 [cm-1]
     freq (    3) =       6.794202 [THz] =     226.630169 [cm-1]
     freq (    4) =      16.383056 [THz] =     546.479938 [cm-1]
     freq (    5) =      16.383056 [THz] =     546.479938 [cm-1]
     freq (    6) =      17.820200 [THz] =     594.417885 [cm-1]
     freq (    7) =      19.884136 [THz] =     663.263370 [cm-1]
     freq (    8) =      19.884136 [THz] =     663.263370 [cm-1]
     freq (    9) =      22.682482 [THz] =     756.606164 [cm-1]
 **************************************************************************

     Mode symmetry, C_3v (3m)   point group:

     freq (   1-   1) =        187.5  [cm-1]   --> A_1  L_1           
     freq (   2-   3) =        226.6  [cm-1]   --> E    L_3           
     freq (   4-   5) =        546.5  [cm-1]   --> E    L_3           
     freq (   6-   6) =        594.4  [cm-1]   --> A_2  L_2           
     freq (   7-   8) =        663.3  [cm-1]   --> E    L_3           
     freq (   9-   9) =        756.6  [cm-1]   --> A_1  L_1           
 
     init_run     :      0.08s CPU      0.09s WALL (       1 calls)
     electrons    :    148.52s CPU    152.62s WALL (       1 calls)

     Called by init_run:
     wfcinit      :      0.00s CPU      0.00s WALL (       1 calls)
     potinit      :      0.01s CPU      0.01s WALL (       1 calls)
     hinit0       :      0.02s CPU      0.03s WALL (       1 calls)

     Called by electrons:
     c_bands      :    148.43s CPU    152.54s WALL (       1 calls)
     v_of_rho     :      0.02s CPU      0.02s WALL (       2 calls)

     Called by c_bands:
     init_us_2    :      5.28s CPU      5.54s WALL (   64512 calls)
     init_us_2:cp :      5.10s CPU      5.38s WALL (   64512 calls)
     cegterg      :    140.49s CPU    144.36s WALL (    2859 calls)

     Called by *egterg:
     cdiaghg      :     57.90s CPU     59.27s WALL (   48205 calls)
     h_psi        :   1071.27s CPU   1127.91s WALL ( 1423323 calls)
     g_psi        :      0.31s CPU      0.32s WALL (   45901 calls)

     Called by h_psi:
     h_psi:calbec :     58.71s CPU     61.82s WALL ( 1423323 calls)
     vloc_psi     :    946.19s CPU    996.21s WALL ( 1423323 calls)
     add_vuspsi   :     51.85s CPU     54.85s WALL ( 1423323 calls)

     General routines
     calbec       :    104.27s CPU    110.00s WALL ( 2848574 calls)
     fft          :      0.31s CPU      0.33s WALL (     819 calls)
     ffts         :      1.05s CPU      1.09s WALL (   10546 calls)
     fftw         :    995.49s CPU   1050.10s WALL (21447054 calls)
     interpolate  :      0.07s CPU      0.07s WALL (     124 calls)
 
     Parallel routines
 
     PHONON       :  25m15.51s CPU  26m34.79s WALL

     INITIALIZATION: 
     phq_setup    :      0.02s CPU      0.02s WALL (       1 calls)
     phq_init     :      5.25s CPU      5.30s WALL (       1 calls)
 
     phq_init     :      5.25s CPU      5.30s WALL (       1 calls)
     init_vloc    :      0.02s CPU      0.02s WALL (       2 calls)
     init_us_1    :      0.01s CPU      0.03s WALL (       2 calls)
     init_us_2    :      5.28s CPU      5.54s WALL (   64512 calls)
 
     DYNAMICAL MATRIX:
     dynmat0      :      4.72s CPU      4.73s WALL (       1 calls)
     phqscf       :   1361.14s CPU   1436.12s WALL (       1 calls)
     dynmatrix    :      0.00s CPU      0.00s WALL (       1 calls)
 
     phqscf       :   1361.14s CPU   1436.12s WALL (       1 calls)
     solve_linter :   1355.81s CPU   1430.66s WALL (       6 calls)
     drhodv       :      5.32s CPU      5.45s WALL (       6 calls)
 
     dynmat0      :      4.72s CPU      4.73s WALL (       1 calls)
     dynmat_us    :      4.72s CPU      4.73s WALL (       1 calls)
     d2ionq       :      0.00s CPU      0.00s WALL (       1 calls)
 
     dynmat_us    :      4.72s CPU      4.73s WALL (       1 calls)
 
     phqscf       :   1361.14s CPU   1436.12s WALL (       1 calls)
     solve_linter :   1355.81s CPU   1430.66s WALL (       6 calls)
 
     solve_linter :   1355.81s CPU   1430.66s WALL (       6 calls)
     dvqpsi_us    :     36.68s CPU     37.99s WALL (   10368 calls)
     sth_kernel   :   1315.58s CPU   1389.04s WALL (      40 calls)
     apply_dpot_b :     68.37s CPU     72.71s WALL (   59904 calls)
     ortho        :      6.82s CPU      7.23s WALL (   70272 calls)
     cgsolve      :   1151.21s CPU   1214.01s WALL (   70272 calls)
     incdrhoscf   :     76.73s CPU     81.86s WALL (   70272 calls)
     dv_of_drho   :      0.56s CPU      0.57s WALL (      61 calls)
     mix_pot      :      0.13s CPU      0.13s WALL (      40 calls)
     psymdvscf    :      2.10s CPU      2.13s WALL (      40 calls)
 
     dvqpsi_us    :     36.68s CPU     37.99s WALL (   10368 calls)
     dvqpsi_us_on :     13.43s CPU     13.89s WALL (   10368 calls)
 
     cgsolve      :   1151.21s CPU   1214.01s WALL (   70272 calls)
     ch_psi       :   1117.48s CPU   1178.07s WALL ( 1372259 calls)
 
     ch_psi       :   1117.48s CPU   1178.07s WALL ( 1372259 calls)
     h_psi        :   1071.27s CPU   1127.91s WALL ( 1423323 calls)
     last         :     97.70s CPU    103.07s WALL ( 1372259 calls)
 
     h_psi        :   1071.27s CPU   1127.91s WALL ( 1423323 calls)
     add_vuspsi   :     51.85s CPU     54.85s WALL ( 1423323 calls)
 
     incdrhoscf   :     76.73s CPU     81.86s WALL (   70272 calls)
 
 
      General routines
     calbec       :    104.27s CPU    110.00s WALL ( 2848574 calls)
     fft          :      0.31s CPU      0.33s WALL (     819 calls)
     ffts         :      1.05s CPU      1.09s WALL (   10546 calls)
     fftw         :    995.49s CPU   1050.10s WALL (21447054 calls)
 
 
     PHONON       :  25m15.51s CPU  26m34.79s WALL

 
   This run was terminated on:   0:51:58  31May2022            

=------------------------------------------------------------------------------=
   JOB DONE.
=------------------------------------------------------------------------------=
