
     Program PHONON v.7.0 starts on 30May2022 at 20:53:53 

     This program is part of the open-source Quantum ESPRESSO suite
     for quantum simulation of materials; please cite
         "P. Giannozzi et al., J. Phys.:Condens. Matter 21 395502 (2009);
         "P. Giannozzi et al., J. Phys.:Condens. Matter 29 465901 (2017);
         "P. Giannozzi et al., J. Chem. Phys. 152 154105 (2020);
          URL http://www.quantum-espresso.org", 
     in publications or presentations arising from this work. More details at
     http://www.quantum-espresso.org/quote

     Parallel version (MPI), running on     8 processors

     MPI processes distributed on     1 nodes
     R & G space division:  proc/nbgrp/npool/nimage =       8
     3660 MiB available memory on the printing compute node when the environment starts
 
     Reading input from mob2_fonon_04.in

     Reading xml data from directory:

     ./tmp/mob2.save/

     IMPORTANT: XC functional enforced from input :
     Exchange-correlation= PBE
                           (   1   4   3   4   0   0   0)
     Any further DFT definition will be discarded
     Please, verify this is what you really want

 
     Parallelization info
     --------------------
     sticks:   dense  smooth     PW     G-vecs:    dense   smooth      PW
     Min         148      43     13                 4484      685     127
     Max         149      44     14                 4489      688     132
     Sum        1189     349    109                35901     5497    1033
 
     Using Slab Decomposition
 
     Reading collected, re-writing distributed wavefunctions


     Dynamical matrices for ( 3, 3, 3)  uniform grid of q-points
     (   6 q-points):
       N         xq(1)         xq(2)         xq(3) 
       1   0.000000000   0.000000000   0.000000000
       2   0.000000000   0.000000000   0.311376641
       3   0.000000000   0.384900179   0.000000000
       4   0.000000000   0.384900179   0.311376641
       5   0.333333333   0.577350269   0.000000000
       6   0.333333333   0.577350269   0.311376641

     Calculation of q =    0.0000000   0.3849002   0.3113766

     Subspace diagonalization in iterative solution of the eigenvalue problem:
     a serial algorithm will be used

 
     Parallelization info
     --------------------
     sticks:   dense  smooth     PW     G-vecs:    dense   smooth      PW
     Min         148      43     15                 4484      685     153
     Max         149      44     16                 4489      688     158
     Sum        1189     349    121                35901     5497    1239
 
     Using Slab Decomposition
 

     Title: 
     Phonon calc for qp04                                                       


     bravais-lattice index     =            4
     lattice parameter (alat)  =       5.8733  a.u.
     unit-cell volume          =     187.8355 (a.u.)^3
     number of atoms/cell      =            3
     number of atomic types    =            2
     number of electrons       =        19.00
     number of Kohn-Sham states=           20
     kinetic-energy cutoff     =      36.0000  Ry
     charge density cutoff     =     504.0000  Ry
     Exchange-correlation= PBE
                           (   1   4   3   4   0   0   0)

     celldm(1)=   5.873335  celldm(2)=   0.000000  celldm(3)=   1.070515
     celldm(4)=   0.000000  celldm(5)=   0.000000  celldm(6)=   0.000000

     crystal axes: (cart. coord. in units of alat)
               a(1) = (   1.000000   0.000000   0.000000 )  
               a(2) = (  -0.500000   0.866025   0.000000 )  
               a(3) = (   0.000000   0.000000   1.070515 )  

     reciprocal axes: (cart. coord. in units 2 pi/alat)
               b(1) = (  1.000000  0.577350  0.000000 )  
               b(2) = (  0.000000  1.154701  0.000000 )  
               b(3) = (  0.000000  0.000000  0.934130 )  


     PseudoPot. # 1 for Xx read from file:
     /home/marcocarmonaga/Apps/qe-7.0/pseudo/Nb1.00Mo0.00.upf
     MD5 check sum: e4b562b21cfca1bf7e2ab47e57cae993
     Pseudo is Norm-conserving, Zval = 13.0
     Generated using virtual.x code
     Using radial grid of  602 points, 12 beta functions with: 
                l(1) =   0
                l(2) =   0
                l(3) =   1
                l(4) =   1
                l(5) =   2
                l(6) =   2
                l(7) =   0
                l(8) =   0
                l(9) =   1
               l(10) =   1
               l(11) =   2
               l(12) =   2

     PseudoPot. # 2 for B  read from file:
     /home/marcocarmonaga/Apps/qe-7.0/pseudo/B_ONCV_PBE-1.2.upf
     MD5 check sum: eb3cbeacc2d324d57d903df00f564d27
     Pseudo is Norm-conserving, Zval =  3.0
     Generated using ONCVPSP code by D. R. Hamann
     Using radial grid of  602 points,  4 beta functions with: 
                l(1) =   0
                l(2) =   0
                l(3) =   1
                l(4) =   1

     atomic species   valence    mass     pseudopotential
        Mo            13.00    92.90600     Xx( 1.00)
        B              3.00    10.81000     B ( 1.00)

     24 Sym. Ops., with inversion, found



   Cartesian axes

     site n.     atom                  positions (alat units)
         1           Mo  tau(   1) = (   0.0000000   0.0000000   0.0000000  )
         2           B   tau(   2) = (   0.5000000   0.2886751   0.5352574  )
         3           B   tau(   3) = (   0.0000000   0.5773503   0.5352574  )

     number of k points=  6156  Gaussian smearing, width (Ry)=  0.0150

     Number of k-points >= 100: set verbosity='high' to print them.

     Dense  grid:    35901 G-vectors     FFT dimensions: (  45,  45,  45)

     Smooth grid:     5497 G-vectors     FFT dimensions: (  24,  24,  25)

     Estimated max dynamical RAM per process >     175.56 MB

     Estimated total dynamical RAM >       1.37 GB

     The potential is recalculated from file :
     ./tmp/_ph0/mob2.save/charge-density

     Starting wfcs are    0 atomic +   20 random wfcs

     Band Structure Calculation
     Davidson diagonalization with overlap

     ethr =  5.26E-11,  avg # of iterations = 19.9

     total cpu time spent up to now is      406.5 secs

     End of band structure calculation

     Number of k-points >= 100: set verbosity='high' to print the bands.

     the Fermi energy is    18.4774 ev

     Phonon calc for qp04                                                       

     bravais-lattice index     =            4
     lattice parameter (alat)  =       5.8733  a.u.
     unit-cell volume          =     187.8355 (a.u.)^3
     number of atoms/cell      =            3
     number of atomic types    =            2
     kinetic-energy cut-off    =      36.0000  Ry
     charge density cut-off    =     504.0000  Ry
     convergence threshold     =      1.0E-14
     beta                      =       0.7000
     number of iterations used =            4
     Exchange-correlation= PBE
                           (   1   4   3   4   0   0   0)


     celldm(1)=    5.87334  celldm(2)=    0.00000  celldm(3)=    1.07051
     celldm(4)=    0.00000  celldm(5)=    0.00000  celldm(6)=    0.00000

     crystal axes: (cart. coord. in units of alat)
               a(1) = (  1.0000  0.0000  0.0000 )  
               a(2) = ( -0.5000  0.8660  0.0000 )  
               a(3) = (  0.0000  0.0000  1.0705 )  

     reciprocal axes: (cart. coord. in units 2 pi/alat)
               b(1) = (  1.0000  0.5774  0.0000 )  
               b(2) = (  0.0000  1.1547  0.0000 )  
               b(3) = (  0.0000  0.0000  0.9341 )  


     Atoms inside the unit cell: 

     Cartesian axes

     site n.  atom      mass           positions (alat units)
        1     Mo  92.9060   tau(    1) = (    0.00000    0.00000    0.00000  )
        2     B   10.8100   tau(    2) = (    0.50000    0.28868    0.53526  )
        3     B   10.8100   tau(    3) = (    0.00000    0.57735    0.53526  )

     Computing dynamical matrix for 
                    q = (   0.0000000   0.3849002   0.3113766 )
 
      2 Sym.Ops. (no q -> -q+G )


     G cutoff =  440.3929  (   4486 G-vectors)     FFT grid: ( 45, 45, 45)
     G cutoff =  125.8266  (    687 G-vectors)  smooth grid: ( 24, 24, 25)

     number of k points=  6156  Gaussian smearing, width (Ry)=  0.0150

     PseudoPot. # 1 for Xx read from file:
     /home/marcocarmonaga/Apps/qe-7.0/pseudo/Nb1.00Mo0.00.upf
     MD5 check sum: e4b562b21cfca1bf7e2ab47e57cae993
     Pseudo is Norm-conserving, Zval = 13.0
     Generated using virtual.x code
     Using radial grid of  602 points, 12 beta functions with: 
                l(1) =   0
                l(2) =   0
                l(3) =   1
                l(4) =   1
                l(5) =   2
                l(6) =   2
                l(7) =   0
                l(8) =   0
                l(9) =   1
               l(10) =   1
               l(11) =   2
               l(12) =   2

     PseudoPot. # 2 for B  read from file:
     /home/marcocarmonaga/Apps/qe-7.0/pseudo/B_ONCV_PBE-1.2.upf
     MD5 check sum: eb3cbeacc2d324d57d903df00f564d27
     Pseudo is Norm-conserving, Zval =  3.0
     Generated using ONCVPSP code by D. R. Hamann
     Using radial grid of  602 points,  4 beta functions with: 
                l(1) =   0
                l(2) =   0
                l(3) =   1
                l(4) =   1

     Mode symmetry, C_s (m)     point group:


     Atomic displacements:
     There are    9 irreducible representations

     Representation     1      1 modes -  To be done

     Representation     2      1 modes -  To be done

     Representation     3      1 modes -  To be done

     Representation     4      1 modes -  To be done

     Representation     5      1 modes -  To be done

     Representation     6      1 modes -  To be done

     Representation     7      1 modes -  To be done

     Representation     8      1 modes -  To be done

     Representation     9      1 modes -  To be done



     Alpha used in Ewald sum =   2.8000
     PHONON       :   6m48.88s CPU   7m 1.38s WALL



     Representation #   1 mode #   1

     Self-consistent Calculation

      iter #   1 total cpu time :   471.6 secs   av.it.:   7.0
      thresh= 1.000E-02 alpha_mix =  0.700 |ddv_scf|^2 =  2.376E-05

      iter #   2 total cpu time :   537.3 secs   av.it.:  12.5
      thresh= 4.874E-04 alpha_mix =  0.700 |ddv_scf|^2 =  4.190E-04

      iter #   3 total cpu time :   593.1 secs   av.it.:  10.2
      thresh= 2.047E-03 alpha_mix =  0.700 |ddv_scf|^2 =  6.355E-06

      iter #   4 total cpu time :   652.8 secs   av.it.:  11.2
      thresh= 2.521E-04 alpha_mix =  0.700 |ddv_scf|^2 =  1.490E-07

      iter #   5 total cpu time :   715.2 secs   av.it.:  11.8
      thresh= 3.859E-05 alpha_mix =  0.700 |ddv_scf|^2 =  6.771E-09

      iter #   6 total cpu time :   777.4 secs   av.it.:  11.8
      thresh= 8.229E-06 alpha_mix =  0.700 |ddv_scf|^2 =  1.060E-10

      iter #   7 total cpu time :   842.3 secs   av.it.:  12.5
      thresh= 1.029E-06 alpha_mix =  0.700 |ddv_scf|^2 =  1.879E-11

      iter #   8 total cpu time :   907.0 secs   av.it.:  12.5
      thresh= 4.334E-07 alpha_mix =  0.700 |ddv_scf|^2 =  3.126E-11

      iter #   9 total cpu time :   966.8 secs   av.it.:  11.2
      thresh= 5.591E-07 alpha_mix =  0.700 |ddv_scf|^2 =  2.904E-11

      iter #  10 total cpu time :  1026.2 secs   av.it.:  11.1
      thresh= 5.389E-07 alpha_mix =  0.700 |ddv_scf|^2 =  8.264E-12

      iter #  11 total cpu time :  1085.9 secs   av.it.:  11.2
      thresh= 2.875E-07 alpha_mix =  0.700 |ddv_scf|^2 =  4.234E-12

      iter #  12 total cpu time :  1143.1 secs   av.it.:  10.6
      thresh= 2.058E-07 alpha_mix =  0.700 |ddv_scf|^2 =  2.469E-13

      iter #  13 total cpu time :  1204.6 secs   av.it.:  11.7
      thresh= 4.969E-08 alpha_mix =  0.700 |ddv_scf|^2 =  2.564E-14

      iter #  14 total cpu time :  1266.6 secs   av.it.:  11.8
      thresh= 1.601E-08 alpha_mix =  0.700 |ddv_scf|^2 =  4.780E-15

     End of self-consistent calculation

     Convergence has been achieved 


     Representation #   2 mode #   2

     Self-consistent Calculation

      iter #   1 total cpu time :  1327.7 secs   av.it.:   9.0
      thresh= 1.000E-02 alpha_mix =  0.700 |ddv_scf|^2 =  3.534E-04

      iter #   2 total cpu time :  1393.0 secs   av.it.:  12.5
      thresh= 1.880E-03 alpha_mix =  0.700 |ddv_scf|^2 =  5.331E-03

      iter #   3 total cpu time :  1448.7 secs   av.it.:  10.3
      thresh= 7.302E-03 alpha_mix =  0.700 |ddv_scf|^2 =  1.589E-04

      iter #   4 total cpu time :  1507.4 secs   av.it.:  11.0
      thresh= 1.261E-03 alpha_mix =  0.700 |ddv_scf|^2 =  2.656E-06

      iter #   5 total cpu time :  1568.9 secs   av.it.:  11.7
      thresh= 1.630E-04 alpha_mix =  0.700 |ddv_scf|^2 =  7.623E-08

      iter #   6 total cpu time :  1631.0 secs   av.it.:  11.8
      thresh= 2.761E-05 alpha_mix =  0.700 |ddv_scf|^2 =  2.009E-09

      iter #   7 total cpu time :  1693.4 secs   av.it.:  11.9
      thresh= 4.482E-06 alpha_mix =  0.700 |ddv_scf|^2 =  2.886E-11

      iter #   8 total cpu time :  1759.2 secs   av.it.:  12.7
      thresh= 5.372E-07 alpha_mix =  0.700 |ddv_scf|^2 =  5.053E-11

      iter #   9 total cpu time :  1818.2 secs   av.it.:  11.0
      thresh= 7.109E-07 alpha_mix =  0.700 |ddv_scf|^2 =  2.668E-11

      iter #  10 total cpu time :  1877.1 secs   av.it.:  11.0
      thresh= 5.165E-07 alpha_mix =  0.700 |ddv_scf|^2 =  6.663E-12

      iter #  11 total cpu time :  1935.8 secs   av.it.:  11.0
      thresh= 2.581E-07 alpha_mix =  0.700 |ddv_scf|^2 =  1.315E-12

      iter #  12 total cpu time :  1998.0 secs   av.it.:  11.8
      thresh= 1.147E-07 alpha_mix =  0.700 |ddv_scf|^2 =  4.830E-13

      iter #  13 total cpu time :  2056.6 secs   av.it.:  11.0
      thresh= 6.950E-08 alpha_mix =  0.700 |ddv_scf|^2 =  9.467E-15

     End of self-consistent calculation

     Convergence has been achieved 


     Representation #   3 mode #   3

     Self-consistent Calculation

      iter #   1 total cpu time :  2105.7 secs   av.it.:   6.8
      thresh= 1.000E-02 alpha_mix =  0.700 |ddv_scf|^2 =  2.642E-05

      iter #   2 total cpu time :  2171.3 secs   av.it.:  12.6
      thresh= 5.140E-04 alpha_mix =  0.700 |ddv_scf|^2 =  5.868E-04

      iter #   3 total cpu time :  2226.4 secs   av.it.:  10.1
      thresh= 2.422E-03 alpha_mix =  0.700 |ddv_scf|^2 =  1.337E-06

      iter #   4 total cpu time :  2292.9 secs   av.it.:  11.5
      thresh= 1.156E-04 alpha_mix =  0.700 |ddv_scf|^2 =  3.120E-08

      iter #   5 total cpu time :  2356.5 secs   av.it.:  12.1
      thresh= 1.766E-05 alpha_mix =  0.700 |ddv_scf|^2 =  1.316E-08

      iter #   6 total cpu time :  2417.6 secs   av.it.:  11.6
      thresh= 1.147E-05 alpha_mix =  0.700 |ddv_scf|^2 =  2.891E-10

      iter #   7 total cpu time :  2481.1 secs   av.it.:  12.1
      thresh= 1.700E-06 alpha_mix =  0.700 |ddv_scf|^2 =  4.259E-11

      iter #   8 total cpu time :  2543.9 secs   av.it.:  12.0
      thresh= 6.526E-07 alpha_mix =  0.700 |ddv_scf|^2 =  6.676E-12

      iter #   9 total cpu time :  2609.3 secs   av.it.:  12.6
      thresh= 2.584E-07 alpha_mix =  0.700 |ddv_scf|^2 =  2.782E-11

      iter #  10 total cpu time :  2668.2 secs   av.it.:  11.0
      thresh= 5.275E-07 alpha_mix =  0.700 |ddv_scf|^2 =  7.648E-12

      iter #  11 total cpu time :  2726.7 secs   av.it.:  10.9
      thresh= 2.765E-07 alpha_mix =  0.700 |ddv_scf|^2 =  2.927E-12

      iter #  12 total cpu time :  2786.1 secs   av.it.:  11.1
      thresh= 1.711E-07 alpha_mix =  0.700 |ddv_scf|^2 =  1.079E-13

      iter #  13 total cpu time :  2849.6 secs   av.it.:  12.1
      thresh= 3.285E-08 alpha_mix =  0.700 |ddv_scf|^2 =  1.757E-14

      iter #  14 total cpu time :  2912.0 secs   av.it.:  11.8
      thresh= 1.325E-08 alpha_mix =  0.700 |ddv_scf|^2 =  1.669E-15

     End of self-consistent calculation

     Convergence has been achieved 


     Representation #   4 mode #   4

     Self-consistent Calculation

      iter #   1 total cpu time :  2961.1 secs   av.it.:   6.9
      thresh= 1.000E-02 alpha_mix =  0.700 |ddv_scf|^2 =  2.839E-05

      iter #   2 total cpu time :  3026.8 secs   av.it.:  12.6
      thresh= 5.328E-04 alpha_mix =  0.700 |ddv_scf|^2 =  6.381E-04

      iter #   3 total cpu time :  3082.1 secs   av.it.:  10.1
      thresh= 2.526E-03 alpha_mix =  0.700 |ddv_scf|^2 =  1.195E-06

      iter #   4 total cpu time :  3143.0 secs   av.it.:  11.5
      thresh= 1.093E-04 alpha_mix =  0.700 |ddv_scf|^2 =  2.889E-08

      iter #   5 total cpu time :  3212.3 secs   av.it.:  12.0
      thresh= 1.700E-05 alpha_mix =  0.700 |ddv_scf|^2 =  1.252E-08

      iter #   6 total cpu time :  3305.4 secs   av.it.:  11.6
      thresh= 1.119E-05 alpha_mix =  0.700 |ddv_scf|^2 =  2.725E-10

      iter #   7 total cpu time :  3462.9 secs   av.it.:  12.0
      thresh= 1.651E-06 alpha_mix =  0.700 |ddv_scf|^2 =  4.231E-11

      iter #   8 total cpu time :  3616.9 secs   av.it.:  12.1
      thresh= 6.505E-07 alpha_mix =  0.700 |ddv_scf|^2 =  1.672E-11

      iter #   9 total cpu time :  3785.3 secs   av.it.:  12.2
      thresh= 4.089E-07 alpha_mix =  0.700 |ddv_scf|^2 =  5.980E-11

      iter #  10 total cpu time :  4007.6 secs   av.it.:  10.6
      thresh= 7.733E-07 alpha_mix =  0.700 |ddv_scf|^2 =  3.386E-12

      iter #  11 total cpu time :  4162.1 secs   av.it.:  11.5
      thresh= 1.840E-07 alpha_mix =  0.700 |ddv_scf|^2 =  4.219E-12

      iter #  12 total cpu time :  4307.5 secs   av.it.:  11.0
      thresh= 2.054E-07 alpha_mix =  0.700 |ddv_scf|^2 =  2.026E-13

      iter #  13 total cpu time :  4564.6 secs   av.it.:  11.8
      thresh= 4.501E-08 alpha_mix =  0.700 |ddv_scf|^2 =  2.535E-14

      iter #  14 total cpu time :  4674.9 secs   av.it.:  11.6
      thresh= 1.592E-08 alpha_mix =  0.700 |ddv_scf|^2 =  2.268E-15

     End of self-consistent calculation

     Convergence has been achieved 


     Representation #   5 mode #   5

     Self-consistent Calculation

      iter #   1 total cpu time :  4766.9 secs   av.it.:   9.1
      thresh= 1.000E-02 alpha_mix =  0.700 |ddv_scf|^2 =  4.946E-04

      iter #   2 total cpu time :  4864.1 secs   av.it.:  12.5
      thresh= 2.224E-03 alpha_mix =  0.700 |ddv_scf|^2 =  9.138E-03

      iter #   3 total cpu time :  4944.8 secs   av.it.:  10.2
      thresh= 9.559E-03 alpha_mix =  0.700 |ddv_scf|^2 =  9.548E-05

      iter #   4 total cpu time :  5056.6 secs   av.it.:  11.3
      thresh= 9.771E-04 alpha_mix =  0.700 |ddv_scf|^2 =  3.669E-06

      iter #   5 total cpu time :  5257.9 secs   av.it.:  11.4
      thresh= 1.916E-04 alpha_mix =  0.700 |ddv_scf|^2 =  7.015E-08

      iter #   6 total cpu time :  5472.1 secs   av.it.:  11.7
      thresh= 2.649E-05 alpha_mix =  0.700 |ddv_scf|^2 =  5.567E-09

      iter #   7 total cpu time :  5671.1 secs   av.it.:  11.8
      thresh= 7.461E-06 alpha_mix =  0.700 |ddv_scf|^2 =  1.769E-10

      iter #   8 total cpu time :  5866.3 secs   av.it.:  11.6
      thresh= 1.330E-06 alpha_mix =  0.700 |ddv_scf|^2 =  1.287E-11

      iter #   9 total cpu time :  6145.6 secs   av.it.:  12.2
      thresh= 3.588E-07 alpha_mix =  0.700 |ddv_scf|^2 =  2.177E-11

      iter #  10 total cpu time :  6337.6 secs   av.it.:  10.9
      thresh= 4.665E-07 alpha_mix =  0.700 |ddv_scf|^2 =  8.128E-12

      iter #  11 total cpu time :  6537.6 secs   av.it.:  11.3
      thresh= 2.851E-07 alpha_mix =  0.700 |ddv_scf|^2 =  2.906E-12

      iter #  12 total cpu time :  6743.4 secs   av.it.:  11.0
      thresh= 1.705E-07 alpha_mix =  0.700 |ddv_scf|^2 =  1.191E-13

      iter #  13 total cpu time :  7024.6 secs   av.it.:  12.6
      thresh= 3.451E-08 alpha_mix =  0.700 |ddv_scf|^2 =  2.911E-13

      iter #  14 total cpu time :  7338.9 secs   av.it.:  10.8
      thresh= 5.396E-08 alpha_mix =  0.700 |ddv_scf|^2 =  3.284E-15

     End of self-consistent calculation

     Convergence has been achieved 


     Representation #   6 mode #   6

     Self-consistent Calculation

      iter #   1 total cpu time :  7497.2 secs   av.it.:   7.0
      thresh= 1.000E-02 alpha_mix =  0.700 |ddv_scf|^2 =  2.572E-05

      iter #   2 total cpu time :  7702.9 secs   av.it.:  12.6
      thresh= 5.071E-04 alpha_mix =  0.700 |ddv_scf|^2 =  4.702E-04

      iter #   3 total cpu time :  7888.3 secs   av.it.:  10.2
      thresh= 2.168E-03 alpha_mix =  0.700 |ddv_scf|^2 =  6.064E-06

      iter #   4 total cpu time :  8031.9 secs   av.it.:  11.2
      thresh= 2.462E-04 alpha_mix =  0.700 |ddv_scf|^2 =  1.258E-07

      iter #   5 total cpu time :  8186.1 secs   av.it.:  11.9
      thresh= 3.547E-05 alpha_mix =  0.700 |ddv_scf|^2 =  7.741E-09

      iter #   6 total cpu time :  8343.5 secs   av.it.:  11.8
      thresh= 8.799E-06 alpha_mix =  0.700 |ddv_scf|^2 =  2.217E-10

      iter #   7 total cpu time :  8491.7 secs   av.it.:  12.2
      thresh= 1.489E-06 alpha_mix =  0.700 |ddv_scf|^2 =  2.745E-11

      iter #   8 total cpu time :  8633.0 secs   av.it.:  12.3
      thresh= 5.240E-07 alpha_mix =  0.700 |ddv_scf|^2 =  2.174E-11

      iter #   9 total cpu time :  8762.8 secs   av.it.:  11.6
      thresh= 4.663E-07 alpha_mix =  0.700 |ddv_scf|^2 =  2.903E-11

      iter #  10 total cpu time :  8895.3 secs   av.it.:  11.2
      thresh= 5.388E-07 alpha_mix =  0.700 |ddv_scf|^2 =  1.087E-11

      iter #  11 total cpu time :  9024.1 secs   av.it.:  11.2
      thresh= 3.297E-07 alpha_mix =  0.700 |ddv_scf|^2 =  5.664E-13

      iter #  12 total cpu time :  9169.7 secs   av.it.:  12.3
      thresh= 7.526E-08 alpha_mix =  0.700 |ddv_scf|^2 =  1.239E-12

      iter #  13 total cpu time :  9297.2 secs   av.it.:  10.5
      thresh= 1.113E-07 alpha_mix =  0.700 |ddv_scf|^2 =  6.768E-14

      iter #  14 total cpu time :  9427.0 secs   av.it.:  11.6
      thresh= 2.601E-08 alpha_mix =  0.700 |ddv_scf|^2 =  6.035E-15

     End of self-consistent calculation

     Convergence has been achieved 


     Representation #   7 mode #   7

     Self-consistent Calculation

      iter #   1 total cpu time :  9528.2 secs   av.it.:   6.1
      thresh= 1.000E-02 alpha_mix =  0.700 |ddv_scf|^2 =  4.192E-07

      iter #   2 total cpu time :  9671.6 secs   av.it.:  12.2
      thresh= 6.474E-05 alpha_mix =  0.700 |ddv_scf|^2 =  3.205E-08

      iter #   3 total cpu time :  9805.3 secs   av.it.:  12.3
      thresh= 1.790E-05 alpha_mix =  0.700 |ddv_scf|^2 =  7.056E-10

      iter #   4 total cpu time :  9939.9 secs   av.it.:  11.8
      thresh= 2.656E-06 alpha_mix =  0.700 |ddv_scf|^2 =  4.705E-11

      iter #   5 total cpu time : 10077.3 secs   av.it.:  11.9
      thresh= 6.859E-07 alpha_mix =  0.700 |ddv_scf|^2 =  1.473E-13

      iter #   6 total cpu time : 10231.2 secs   av.it.:  12.7
      thresh= 3.837E-08 alpha_mix =  0.700 |ddv_scf|^2 =  6.806E-16

     End of self-consistent calculation

     Convergence has been achieved 


     Representation #   8 mode #   8

     Self-consistent Calculation

      iter #   1 total cpu time : 10338.1 secs   av.it.:   6.1
      thresh= 1.000E-02 alpha_mix =  0.700 |ddv_scf|^2 =  4.192E-07

      iter #   2 total cpu time : 10480.4 secs   av.it.:  12.2
      thresh= 6.474E-05 alpha_mix =  0.700 |ddv_scf|^2 =  3.205E-08

      iter #   3 total cpu time : 10633.9 secs   av.it.:  12.3
      thresh= 1.790E-05 alpha_mix =  0.700 |ddv_scf|^2 =  7.056E-10

      iter #   4 total cpu time : 10778.4 secs   av.it.:  11.8
      thresh= 2.656E-06 alpha_mix =  0.700 |ddv_scf|^2 =  4.705E-11

      iter #   5 total cpu time : 10932.0 secs   av.it.:  11.9
      thresh= 6.859E-07 alpha_mix =  0.700 |ddv_scf|^2 =  1.473E-13

      iter #   6 total cpu time : 11083.9 secs   av.it.:  12.7
      thresh= 3.837E-08 alpha_mix =  0.700 |ddv_scf|^2 =  6.806E-16

     End of self-consistent calculation

     Convergence has been achieved 


     Representation #   9 mode #   9

     Self-consistent Calculation

      iter #   1 total cpu time : 11217.3 secs   av.it.:   8.2
      thresh= 1.000E-02 alpha_mix =  0.700 |ddv_scf|^2 =  1.228E-05

      iter #   2 total cpu time : 11355.7 secs   av.it.:  12.2
      thresh= 3.504E-04 alpha_mix =  0.700 |ddv_scf|^2 =  1.533E-06

      iter #   3 total cpu time : 11488.8 secs   av.it.:  12.1
      thresh= 1.238E-04 alpha_mix =  0.700 |ddv_scf|^2 =  2.148E-09

      iter #   4 total cpu time : 11626.9 secs   av.it.:  12.3
      thresh= 4.634E-06 alpha_mix =  0.700 |ddv_scf|^2 =  1.487E-10

      iter #   5 total cpu time : 11761.0 secs   av.it.:  11.9
      thresh= 1.220E-06 alpha_mix =  0.700 |ddv_scf|^2 =  8.242E-13

      iter #   6 total cpu time : 11891.1 secs   av.it.:  12.0
      thresh= 9.079E-08 alpha_mix =  0.700 |ddv_scf|^2 =  2.188E-14

      iter #   7 total cpu time : 11970.6 secs   av.it.:  12.2
      thresh= 1.479E-08 alpha_mix =  0.700 |ddv_scf|^2 =  2.714E-16

     End of self-consistent calculation

     Convergence has been achieved 
 
     Number of q in the star =   12
     List of q in the star:
          1   0.000000000   0.384900179   0.311376641
          2   0.333333333  -0.192450090   0.311376641
          3   0.000000000  -0.384900179   0.311376641
          4   0.333333333   0.192450090   0.311376641
          5  -0.333333333   0.192450090   0.311376641
          6   0.000000000   0.384900179  -0.311376641
          7   0.000000000  -0.384900179  -0.311376641
          8   0.333333333  -0.192450090  -0.311376641
          9  -0.333333333  -0.192450090  -0.311376641
         10  -0.333333333   0.192450090  -0.311376641
         11   0.333333333   0.192450090  -0.311376641
         12  -0.333333333  -0.192450090   0.311376641

     Diagonalizing the dynamical matrix

     q = (    0.000000000   0.384900179   0.311376641 ) 

 **************************************************************************
     freq (    1) =       5.205034 [THz] =     173.621249 [cm-1]
     freq (    2) =       5.575249 [THz] =     185.970283 [cm-1]
     freq (    3) =       6.816361 [THz] =     227.369332 [cm-1]
     freq (    4) =      14.050757 [THz] =     468.682791 [cm-1]
     freq (    5) =      15.265578 [THz] =     509.204856 [cm-1]
     freq (    6) =      16.563300 [THz] =     552.492209 [cm-1]
     freq (    7) =      17.930209 [THz] =     598.087409 [cm-1]
     freq (    8) =      22.536643 [THz] =     751.741494 [cm-1]
     freq (    9) =      23.114210 [THz] =     771.007050 [cm-1]
 **************************************************************************

     Mode symmetry, C_s (m)     point group:

     freq (   1-   1) =        173.6  [cm-1]   --> A'                 
     freq (   2-   2) =        186.0  [cm-1]   --> A''                
     freq (   3-   3) =        227.4  [cm-1]   --> A'                 
     freq (   4-   4) =        468.7  [cm-1]   --> A''                
     freq (   5-   5) =        509.2  [cm-1]   --> A'                 
     freq (   6-   6) =        552.5  [cm-1]   --> A'                 
     freq (   7-   7) =        598.1  [cm-1]   --> A'                 
     freq (   8-   8) =        751.7  [cm-1]   --> A''                
     freq (   9-   9) =        771.0  [cm-1]   --> A'                 
 
     init_run     :      0.11s CPU      0.12s WALL (       1 calls)
     electrons    :    394.20s CPU    406.38s WALL (       1 calls)

     Called by init_run:
     wfcinit      :      0.00s CPU      0.00s WALL (       1 calls)
     potinit      :      0.01s CPU      0.01s WALL (       1 calls)
     hinit0       :      0.02s CPU      0.03s WALL (       1 calls)

     Called by electrons:
     c_bands      :    393.98s CPU    406.16s WALL (       1 calls)
     v_of_rho     :      0.02s CPU      0.02s WALL (       2 calls)

     Called by c_bands:
     init_us_2    :     35.27s CPU     39.55s WALL (  381672 calls)
     init_us_2:cp :     34.11s CPU     38.46s WALL (  381672 calls)
     cegterg      :    373.01s CPU    384.41s WALL (    7748 calls)

     Called by *egterg:
     cdiaghg      :    153.61s CPU    157.60s WALL (  128895 calls)
     h_psi        :   6992.23s CPU   8430.13s WALL ( 6199436 calls)
     g_psi        :      0.81s CPU      0.83s WALL (  122739 calls)

     Called by h_psi:
     h_psi:calbec :    550.02s CPU    642.13s WALL ( 6199436 calls)
     vloc_psi     :   6128.68s CPU   7439.19s WALL ( 6199436 calls)
     add_vuspsi   :    248.26s CPU    278.51s WALL ( 6199436 calls)

     General routines
     calbec       :    894.02s CPU   1038.43s WALL (12403817 calls)
     fft          :      1.26s CPU      1.62s WALL (    1352 calls)
     ffts         :     13.85s CPU     18.17s WALL (   27989 calls)
     fftw         :   6762.80s CPU   8279.54s WALL (90277198 calls)
     interpolate  :      0.18s CPU      0.20s WALL (     206 calls)
 
     Parallel routines
 
     PHONON       :      2h46m CPU      3h19m WALL

     INITIALIZATION: 
     phq_setup    :      0.02s CPU      0.05s WALL (       1 calls)
     phq_init     :     14.03s CPU     14.12s WALL (       1 calls)
 
     phq_init     :     14.03s CPU     14.12s WALL (       1 calls)
     init_vloc    :      0.02s CPU      0.02s WALL (       2 calls)
     init_us_1    :      0.02s CPU      0.03s WALL (       2 calls)
     init_us_2    :     35.27s CPU     39.55s WALL (  381672 calls)
 
     DYNAMICAL MATRIX:
     dynmat0      :     12.60s CPU     12.66s WALL (       1 calls)
     phqscf       :   9600.13s CPU  11551.04s WALL (       1 calls)
     dynmatrix    :      0.00s CPU      0.03s WALL (       1 calls)
 
     phqscf       :   9600.13s CPU  11551.04s WALL (       1 calls)
     solve_linter :   9576.99s CPU  11524.99s WALL (       9 calls)
     drhodv       :     23.14s CPU     26.00s WALL (       9 calls)
 
     dynmat0      :     12.60s CPU     12.66s WALL (       1 calls)
     dynmat_us    :     12.59s CPU     12.65s WALL (       1 calls)
     d2ionq       :      0.00s CPU      0.00s WALL (       1 calls)
 
     dynmat_us    :     12.59s CPU     12.65s WALL (       1 calls)
 
     phqscf       :   9600.13s CPU  11551.04s WALL (       1 calls)
     solve_linter :   9576.99s CPU  11524.99s WALL (       9 calls)
 
     solve_linter :   9576.99s CPU  11524.99s WALL (       9 calls)
     dvqpsi_us    :    136.07s CPU    165.62s WALL (   27702 calls)
     sth_kernel   :   9433.94s CPU  11351.14s WALL (     102 calls)
     apply_dpot_b :    527.59s CPU    647.03s WALL (  286254 calls)
     ortho        :     57.25s CPU     66.83s WALL (  313956 calls)
     cgsolve      :   8188.67s CPU   9836.48s WALL (  313956 calls)
     incdrhoscf   :    539.83s CPU    661.72s WALL (  313956 calls)
     dv_of_drho   :      1.65s CPU      2.04s WALL (     102 calls)
     mix_pot      :      0.43s CPU      0.55s WALL (     102 calls)
     psymdvscf    :      1.82s CPU      2.08s WALL (     102 calls)
 
     dvqpsi_us    :    136.07s CPU    165.62s WALL (   27702 calls)
     dvqpsi_us_on :     33.20s CPU     37.74s WALL (   27702 calls)
 
     cgsolve      :   8188.67s CPU   9836.48s WALL (  313956 calls)
     ch_psi       :   7806.44s CPU   9391.86s WALL ( 6062793 calls)
 
     ch_psi       :   7806.44s CPU   9391.86s WALL ( 6062793 calls)
     h_psi        :   6992.23s CPU   8430.13s WALL ( 6199436 calls)
     last         :    907.88s CPU   1052.97s WALL ( 6062793 calls)
 
     h_psi        :   6992.23s CPU   8430.13s WALL ( 6199436 calls)
     add_vuspsi   :    248.26s CPU    278.51s WALL ( 6199436 calls)
 
     incdrhoscf   :    539.83s CPU    661.72s WALL (  313956 calls)
 
 
      General routines
     calbec       :    894.02s CPU   1038.43s WALL (12403817 calls)
     fft          :      1.26s CPU      1.62s WALL (    1352 calls)
     ffts         :     13.85s CPU     18.17s WALL (   27989 calls)
     fftw         :   6762.80s CPU   8279.54s WALL (90277198 calls)
 
 
     PHONON       :      2h46m CPU      3h19m WALL

 
   This run was terminated on:   0:13:25  31May2022            

=------------------------------------------------------------------------------=
   JOB DONE.
=------------------------------------------------------------------------------=
