
     Program PHONON v.7.0 starts on 30May2022 at 19:49:26 

     This program is part of the open-source Quantum ESPRESSO suite
     for quantum simulation of materials; please cite
         "P. Giannozzi et al., J. Phys.:Condens. Matter 21 395502 (2009);
         "P. Giannozzi et al., J. Phys.:Condens. Matter 29 465901 (2017);
         "P. Giannozzi et al., J. Chem. Phys. 152 154105 (2020);
          URL http://www.quantum-espresso.org", 
     in publications or presentations arising from this work. More details at
     http://www.quantum-espresso.org/quote

     Parallel version (MPI), running on     8 processors

     MPI processes distributed on     1 nodes
     R & G space division:  proc/nbgrp/npool/nimage =       8
     2203 MiB available memory on the printing compute node when the environment starts
 
     Reading input from mob2_fonon_01.in

     Reading xml data from directory:

     ./tmp/mob2.save/

     IMPORTANT: XC functional enforced from input :
     Exchange-correlation= PBE
                           (   1   4   3   4   0   0   0)
     Any further DFT definition will be discarded
     Please, verify this is what you really want

 
     Parallelization info
     --------------------
     sticks:   dense  smooth     PW     G-vecs:    dense   smooth      PW
     Min         148      43     13                 4484      685     127
     Max         149      44     14                 4489      688     132
     Sum        1189     349    109                35901     5497    1033
 
     Using Slab Decomposition
 
     Reading collected, re-writing distributed wavefunctions


     Dynamical matrices for ( 3, 3, 3)  uniform grid of q-points
     (   6 q-points):
       N         xq(1)         xq(2)         xq(3) 
       1   0.000000000   0.000000000   0.000000000
       2   0.000000000   0.000000000   0.311376641
       3   0.000000000   0.384900179   0.000000000
       4   0.000000000   0.384900179   0.311376641
       5   0.333333333   0.577350269   0.000000000
       6   0.333333333   0.577350269   0.311376641

     Calculation of q =    0.0000000   0.0000000   0.0000000

     Phonon calc for qp01                                                       

     bravais-lattice index     =            4
     lattice parameter (alat)  =       5.8733  a.u.
     unit-cell volume          =     187.8355 (a.u.)^3
     number of atoms/cell      =            3
     number of atomic types    =            2
     kinetic-energy cut-off    =      36.0000  Ry
     charge density cut-off    =     504.0000  Ry
     convergence threshold     =      1.0E-14
     beta                      =       0.7000
     number of iterations used =            4
     Exchange-correlation= PBE
                           (   1   4   3   4   0   0   0)


     celldm(1)=    5.87334  celldm(2)=    0.00000  celldm(3)=    1.07051
     celldm(4)=    0.00000  celldm(5)=    0.00000  celldm(6)=    0.00000

     crystal axes: (cart. coord. in units of alat)
               a(1) = (  1.0000  0.0000  0.0000 )  
               a(2) = ( -0.5000  0.8660  0.0000 )  
               a(3) = (  0.0000  0.0000  1.0705 )  

     reciprocal axes: (cart. coord. in units 2 pi/alat)
               b(1) = (  1.0000  0.5774  0.0000 )  
               b(2) = (  0.0000  1.1547  0.0000 )  
               b(3) = (  0.0000  0.0000  0.9341 )  


     Atoms inside the unit cell: 

     Cartesian axes

     site n.  atom      mass           positions (alat units)
        1     Mo  92.9060   tau(    1) = (    0.00000    0.00000    0.00000  )
        2     B   10.8100   tau(    2) = (    0.50000    0.28868    0.53526  )
        3     B   10.8100   tau(    3) = (    0.00000    0.57735    0.53526  )

     Computing dynamical matrix for 
                    q = (   0.0000000   0.0000000   0.0000000 )
 
     25 Sym.Ops. (with q -> -q+G )


     G cutoff =  440.3929  (   4486 G-vectors)     FFT grid: ( 45, 45, 45)
     G cutoff =  125.8266  (    687 G-vectors)  smooth grid: ( 24, 24, 25)

     number of k points=   333  Gaussian smearing, width (Ry)=  0.0150

     PseudoPot. # 1 for Xx read from file:
     /home/marcocarmonaga/Apps/qe-7.0/pseudo/Nb1.00Mo0.00.upf
     MD5 check sum: e4b562b21cfca1bf7e2ab47e57cae993
     Pseudo is Norm-conserving, Zval = 13.0
     Generated using virtual.x code
     Using radial grid of  602 points, 12 beta functions with: 
                l(1) =   0
                l(2) =   0
                l(3) =   1
                l(4) =   1
                l(5) =   2
                l(6) =   2
                l(7) =   0
                l(8) =   0
                l(9) =   1
               l(10) =   1
               l(11) =   2
               l(12) =   2

     PseudoPot. # 2 for B  read from file:
     /home/marcocarmonaga/Apps/qe-7.0/pseudo/B_ONCV_PBE-1.2.upf
     MD5 check sum: eb3cbeacc2d324d57d903df00f564d27
     Pseudo is Norm-conserving, Zval =  3.0
     Generated using ONCVPSP code by D. R. Hamann
     Using radial grid of  602 points,  4 beta functions with: 
                l(1) =   0
                l(2) =   0
                l(3) =   1
                l(4) =   1

     Mode symmetry, D_6h(6/mmm) point group:


     Atomic displacements:
     There are    6 irreducible representations

     Representation     1      1 modes -  To be done

     Representation     2      2 modes -  To be done

     Representation     3      1 modes -  To be done

     Representation     4      1 modes -  To be done

     Representation     5      2 modes -  To be done

     Representation     6      2 modes -  To be done



     Alpha used in Ewald sum =   2.8000
     PHONON       :      1.78s CPU      2.00s WALL



     Representation #   1 mode #   1

     Self-consistent Calculation
 
     Pert. #  1: Fermi energy shift (Ry) =    -5.7824E-19     0.0000E+00

      iter #   1 total cpu time :     5.6 secs   av.it.:   4.8
      thresh= 1.000E-02 alpha_mix =  0.700 |ddv_scf|^2 =  5.884E-08
 
     Pert. #  1: Fermi energy shift (Ry) =     5.7824E-19     0.0000E+00

      iter #   2 total cpu time :    10.2 secs   av.it.:  10.8
      thresh= 2.426E-05 alpha_mix =  0.700 |ddv_scf|^2 =  2.674E-09
 
     Pert. #  1: Fermi energy shift (Ry) =     0.0000E+00     0.0000E+00

      iter #   3 total cpu time :    14.3 secs   av.it.:   9.2
      thresh= 5.171E-06 alpha_mix =  0.700 |ddv_scf|^2 =  1.193E-10
 
     Pert. #  1: Fermi energy shift (Ry) =     0.0000E+00     0.0000E+00

      iter #   4 total cpu time :    18.0 secs   av.it.:   8.2
      thresh= 1.092E-06 alpha_mix =  0.700 |ddv_scf|^2 =  8.095E-15

     End of self-consistent calculation

     Convergence has been achieved 


     Representation #   2 modes #   2   3

     Self-consistent Calculation
 
     Pert. #  1: Fermi energy shift (Ry) =     2.8912E-19     3.0612E-40
     Pert. #  2: Fermi energy shift (Ry) =     0.0000E+00     3.1377E-40

      iter #   1 total cpu time :    26.6 secs   av.it.:   5.8
      thresh= 1.000E-02 alpha_mix =  0.700 |ddv_scf|^2 =  1.040E-07
 
     Pert. #  1: Fermi energy shift (Ry) =     2.8912E-19     1.3393E-41
     Pert. #  2: Fermi energy shift (Ry) =     4.3368E-19     2.9655E-41

      iter #   2 total cpu time :    38.0 secs   av.it.:  12.4
      thresh= 3.225E-05 alpha_mix =  0.700 |ddv_scf|^2 =  2.856E-09
 
     Pert. #  1: Fermi energy shift (Ry) =     5.7824E-19     7.6530E-42
     Pert. #  2: Fermi energy shift (Ry) =    -4.3368E-19     2.1046E-41

      iter #   3 total cpu time :    49.6 secs   av.it.:  12.4
      thresh= 5.344E-06 alpha_mix =  0.700 |ddv_scf|^2 =  1.016E-10
 
     Pert. #  1: Fermi energy shift (Ry) =    -4.3368E-19     6.6963E-42
     Pert. #  2: Fermi energy shift (Ry) =     0.0000E+00     1.8176E-41

      iter #   4 total cpu time :    59.9 secs   av.it.:  11.0
      thresh= 1.008E-06 alpha_mix =  0.700 |ddv_scf|^2 =  9.176E-13
 
     Pert. #  1: Fermi energy shift (Ry) =     0.0000E+00     6.6963E-42
     Pert. #  2: Fermi energy shift (Ry) =     0.0000E+00     1.8176E-41

      iter #   5 total cpu time :    70.8 secs   av.it.:  11.6
      thresh= 9.579E-08 alpha_mix =  0.700 |ddv_scf|^2 =  5.175E-16

     End of self-consistent calculation

     Convergence has been achieved 


     Representation #   3 mode #   4

     Self-consistent Calculation
 
     Pert. #  1: Fermi energy shift (Ry) =    -2.2058E-24     0.0000E+00

      iter #   1 total cpu time :    76.2 secs   av.it.:   7.9
      thresh= 1.000E-02 alpha_mix =  0.700 |ddv_scf|^2 =  2.426E-05
 
     Pert. #  1: Fermi energy shift (Ry) =     1.1029E-24     0.0000E+00

      iter #   2 total cpu time :    81.8 secs   av.it.:  11.4
      thresh= 4.925E-04 alpha_mix =  0.700 |ddv_scf|^2 =  7.784E-06
 
     Pert. #  1: Fermi energy shift (Ry) =    -1.1029E-24     0.0000E+00

      iter #   3 total cpu time :    87.1 secs   av.it.:  10.9
      thresh= 2.790E-04 alpha_mix =  0.700 |ddv_scf|^2 =  1.584E-09
 
     Pert. #  1: Fermi energy shift (Ry) =     3.3087E-24     0.0000E+00

      iter #   4 total cpu time :    92.7 secs   av.it.:  11.6
      thresh= 3.980E-06 alpha_mix =  0.700 |ddv_scf|^2 =  2.051E-10
 
     Pert. #  1: Fermi energy shift (Ry) =     3.3087E-24     0.0000E+00

      iter #   5 total cpu time :    98.3 secs   av.it.:  11.0
      thresh= 1.432E-06 alpha_mix =  0.700 |ddv_scf|^2 =  8.236E-13
 
     Pert. #  1: Fermi energy shift (Ry) =    -1.1029E-24     0.0000E+00

      iter #   6 total cpu time :   109.8 secs   av.it.:  11.2
      thresh= 9.075E-08 alpha_mix =  0.700 |ddv_scf|^2 =  3.004E-15

     End of self-consistent calculation

     Convergence has been achieved 


     Representation #   4 mode #   5

     Self-consistent Calculation
 
     Pert. #  1: Fermi energy shift (Ry) =     2.7573E-25     0.0000E+00

      iter #   1 total cpu time :   114.6 secs   av.it.:   6.2
      thresh= 1.000E-02 alpha_mix =  0.700 |ddv_scf|^2 =  1.582E-06
 
     Pert. #  1: Fermi energy shift (Ry) =     1.6544E-24     1.9592E-39

      iter #   2 total cpu time :   121.3 secs   av.it.:  11.3
      thresh= 1.258E-04 alpha_mix =  0.700 |ddv_scf|^2 =  4.240E-07
 
     Pert. #  1: Fermi energy shift (Ry) =    -5.5145E-25    -2.9387E-39

      iter #   3 total cpu time :   127.8 secs   av.it.:  11.0
      thresh= 6.512E-05 alpha_mix =  0.700 |ddv_scf|^2 =  1.238E-09
 
     Pert. #  1: Fermi energy shift (Ry) =    -5.5145E-25    -9.7958E-40

      iter #   4 total cpu time :   134.2 secs   av.it.:  10.8
      thresh= 3.519E-06 alpha_mix =  0.700 |ddv_scf|^2 =  5.797E-11
 
     Pert. #  1: Fermi energy shift (Ry) =     0.0000E+00     4.8979E-40

      iter #   5 total cpu time :   140.4 secs   av.it.:  10.3
      thresh= 7.614E-07 alpha_mix =  0.700 |ddv_scf|^2 =  6.711E-15

     End of self-consistent calculation

     Convergence has been achieved 


     Representation #   5 modes #   6   7

     Self-consistent Calculation
 
     Pert. #  1: Fermi energy shift (Ry) =    -2.7573E-25    -1.2539E-37
     Pert. #  2: Fermi energy shift (Ry) =     1.3786E-25    -9.4040E-38

      iter #   1 total cpu time :   149.9 secs   av.it.:   5.3
      thresh= 1.000E-02 alpha_mix =  0.700 |ddv_scf|^2 =  3.405E-08
 
     Pert. #  1: Fermi energy shift (Ry) =     0.0000E+00     2.4489E-40
     Pert. #  2: Fermi energy shift (Ry) =     2.7573E-25    -7.3468E-40

      iter #   2 total cpu time :   164.2 secs   av.it.:  12.4
      thresh= 1.845E-05 alpha_mix =  0.700 |ddv_scf|^2 =  1.838E-09
 
     Pert. #  1: Fermi energy shift (Ry) =     0.0000E+00    -1.9592E-39
     Pert. #  2: Fermi energy shift (Ry) =    -1.5165E-24     1.4694E-39

      iter #   3 total cpu time :   178.7 secs   av.it.:  12.3
      thresh= 4.287E-06 alpha_mix =  0.700 |ddv_scf|^2 =  1.328E-10
 
     Pert. #  1: Fermi energy shift (Ry) =     0.0000E+00    -1.4694E-39
     Pert. #  2: Fermi energy shift (Ry) =    -1.5165E-24     2.4489E-40

      iter #   4 total cpu time :   192.3 secs   av.it.:  11.8
      thresh= 1.153E-06 alpha_mix =  0.700 |ddv_scf|^2 =  3.031E-12
 
     Pert. #  1: Fermi energy shift (Ry) =     0.0000E+00    -1.4694E-39
     Pert. #  2: Fermi energy shift (Ry) =    -1.3786E-24     2.4489E-40

      iter #   5 total cpu time :   206.0 secs   av.it.:  11.9
      thresh= 1.741E-07 alpha_mix =  0.700 |ddv_scf|^2 =  6.230E-16

     End of self-consistent calculation

     Convergence has been achieved 


     Representation #   6 modes #   8   9

     Self-consistent Calculation
 
     Pert. #  1: Fermi energy shift (Ry) =     1.1029E-24    -2.8212E-37
     Pert. #  2: Fermi energy shift (Ry) =     5.5145E-25     7.0530E-38

      iter #   1 total cpu time :   218.5 secs   av.it.:   7.8
      thresh= 1.000E-02 alpha_mix =  0.700 |ddv_scf|^2 =  2.406E-06
 
     Pert. #  1: Fermi energy shift (Ry) =    -4.1359E-25     2.4489E-39
     Pert. #  2: Fermi energy shift (Ry) =     1.7233E-25     0.0000E+00

      iter #   2 total cpu time :   233.2 secs   av.it.:  12.4
      thresh= 1.551E-04 alpha_mix =  0.700 |ddv_scf|^2 =  2.179E-07
 
     Pert. #  1: Fermi energy shift (Ry) =     0.0000E+00    -8.5713E-40
     Pert. #  2: Fermi energy shift (Ry) =     1.3786E-24     0.0000E+00

      iter #   3 total cpu time :   248.6 secs   av.it.:  12.3
      thresh= 4.668E-05 alpha_mix =  0.700 |ddv_scf|^2 =  3.496E-10
 
     Pert. #  1: Fermi energy shift (Ry) =    -1.1029E-24    -4.2857E-40
     Pert. #  2: Fermi energy shift (Ry) =     4.1359E-25     0.0000E+00

      iter #   4 total cpu time :   262.7 secs   av.it.:  12.3
      thresh= 1.870E-06 alpha_mix =  0.700 |ddv_scf|^2 =  5.115E-12
 
     Pert. #  1: Fermi energy shift (Ry) =    -2.7573E-25    -4.2857E-40
     Pert. #  2: Fermi energy shift (Ry) =     8.2718E-25     0.0000E+00

      iter #   5 total cpu time :   276.4 secs   av.it.:  11.7
      thresh= 2.262E-07 alpha_mix =  0.700 |ddv_scf|^2 =  8.112E-14
 
     Pert. #  1: Fermi energy shift (Ry) =     1.9301E-24    -4.2857E-40
     Pert. #  2: Fermi energy shift (Ry) =     8.2718E-25     0.0000E+00

      iter #   6 total cpu time :   290.5 secs   av.it.:  12.3
      thresh= 2.848E-08 alpha_mix =  0.700 |ddv_scf|^2 =  1.605E-16

     End of self-consistent calculation

     Convergence has been achieved 
 
     Number of q in the star =    1
     List of q in the star:
          1   0.000000000   0.000000000   0.000000000

     Diagonalizing the dynamical matrix

     q = (    0.000000000   0.000000000   0.000000000 ) 

 **************************************************************************
     freq (    1) =       0.564094 [THz] =      18.816155 [cm-1]
     freq (    2) =       0.564094 [THz] =      18.816155 [cm-1]
     freq (    3) =       0.666366 [THz] =      22.227565 [cm-1]
     freq (    4) =      12.453574 [THz] =     415.406515 [cm-1]
     freq (    5) =      12.453574 [THz] =     415.406515 [cm-1]
     freq (    6) =      14.237560 [THz] =     474.913874 [cm-1]
     freq (    7) =      16.400935 [THz] =     547.076317 [cm-1]
     freq (    8) =      23.521195 [THz] =     784.582614 [cm-1]
     freq (    9) =      23.521195 [THz] =     784.582614 [cm-1]
 **************************************************************************

     Mode symmetry, D_6h(6/mmm) point group:

     freq (   1-   2) =         18.8  [cm-1]   --> E_1u            I  
     freq (   3-   3) =         22.2  [cm-1]   --> A_2u            I  
     freq (   4-   5) =        415.4  [cm-1]   --> E_1u            I  
     freq (   6-   6) =        474.9  [cm-1]   --> A_2u            I  
     freq (   7-   7) =        547.1  [cm-1]   --> B_1g               
     freq (   8-   9) =        784.6  [cm-1]   --> E_2g            R  
 
     PHONON       :   4m30.29s CPU   4m50.84s WALL

     INITIALIZATION: 
     phq_setup    :      0.01s CPU      0.02s WALL (       1 calls)
     phq_init     :      1.29s CPU      1.37s WALL (       1 calls)
 
     phq_init     :      1.29s CPU      1.37s WALL (       1 calls)
     init_vloc    :      0.02s CPU      0.02s WALL (       1 calls)
     init_us_1    :      0.00s CPU      0.01s WALL (       1 calls)
     init_us_2    :      1.27s CPU      1.35s WALL (   16983 calls)
 
     DYNAMICAL MATRIX:
     dynmat0      :      1.14s CPU      1.19s WALL (       1 calls)
     phqscf       :    268.50s CPU    288.82s WALL (       1 calls)
     dynmatrix    :      0.00s CPU      0.00s WALL (       1 calls)
 
     phqscf       :    268.50s CPU    288.82s WALL (       1 calls)
     solve_linter :    267.16s CPU    287.44s WALL (       6 calls)
     drhodv       :      1.34s CPU      1.37s WALL (       6 calls)
 
     dynmat0      :      1.14s CPU      1.19s WALL (       1 calls)
     dynmat_us    :      1.13s CPU      1.19s WALL (       1 calls)
     d2ionq       :      0.00s CPU      0.00s WALL (       1 calls)
 
     dynmat_us    :      1.13s CPU      1.19s WALL (       1 calls)
 
     phqscf       :    268.50s CPU    288.82s WALL (       1 calls)
     solve_linter :    267.16s CPU    287.44s WALL (       6 calls)
 
     solve_linter :    267.16s CPU    287.44s WALL (       6 calls)
     dvqpsi_us    :      9.39s CPU      9.97s WALL (    2997 calls)
     sth_kernel   :    249.54s CPU    268.68s WALL (      31 calls)
     apply_dpot_b :     13.47s CPU     14.62s WALL (   12654 calls)
     ortho        :      1.37s CPU      1.47s WALL (   15651 calls)
     cgsolve      :    216.43s CPU    232.88s WALL (   15651 calls)
     incdrhoscf   :     15.96s CPU     17.24s WALL (   15651 calls)
     dv_of_drho   :      0.64s CPU      0.92s WALL (      47 calls)
     mix_pot      :      0.12s CPU      0.12s WALL (      31 calls)
     ef_shift     :      0.03s CPU      0.04s WALL (      31 calls)
     ef_shift_wfc :      0.08s CPU      0.08s WALL (       6 calls)
     localdos     :      1.69s CPU      1.84s WALL (       6 calls)
     psymdvscf    :      5.41s CPU      5.51s WALL (      31 calls)
 
     dvqpsi_us    :      9.39s CPU      9.97s WALL (    2997 calls)
     dvqpsi_us_on :      3.38s CPU      3.54s WALL (    2997 calls)
 
     cgsolve      :    216.43s CPU    232.88s WALL (   15651 calls)
     ch_psi       :    210.01s CPU    225.96s WALL (  268560 calls)
 
     ch_psi       :    210.01s CPU    225.96s WALL (  268560 calls)
     h_psi        :    189.02s CPU    203.50s WALL (  268560 calls)
     last         :     17.46s CPU     18.77s WALL (  268560 calls)
 
     h_psi        :    189.02s CPU    203.50s WALL (  268560 calls)
     add_vuspsi   :      9.07s CPU      9.73s WALL (  268560 calls)
 
     incdrhoscf   :     15.96s CPU     17.24s WALL (   15651 calls)
 
 
      General routines
     calbec       :     19.15s CPU     20.55s WALL (  554436 calls)
     fft          :      0.51s CPU      0.67s WALL (     726 calls)
     ffts         :      1.26s CPU      1.40s WALL (   23012 calls)
     fftw         :    181.06s CPU    195.25s WALL ( 4143620 calls)
 
 
     PHONON       :   4m30.29s CPU   4m50.85s WALL

 
   This run was terminated on:  19:54:16  30May2022            

=------------------------------------------------------------------------------=
   JOB DONE.
=------------------------------------------------------------------------------=
