
     Program PHONON v.7.0 starts on 30May2022 at 19:54:17 

     This program is part of the open-source Quantum ESPRESSO suite
     for quantum simulation of materials; please cite
         "P. Giannozzi et al., J. Phys.:Condens. Matter 21 395502 (2009);
         "P. Giannozzi et al., J. Phys.:Condens. Matter 29 465901 (2017);
         "P. Giannozzi et al., J. Chem. Phys. 152 154105 (2020);
          URL http://www.quantum-espresso.org", 
     in publications or presentations arising from this work. More details at
     http://www.quantum-espresso.org/quote

     Parallel version (MPI), running on     8 processors

     MPI processes distributed on     1 nodes
     R & G space division:  proc/nbgrp/npool/nimage =       8
     2104 MiB available memory on the printing compute node when the environment starts
 
     Reading input from mob2_fonon_02.in

     Reading xml data from directory:

     ./tmp/mob2.save/

     IMPORTANT: XC functional enforced from input :
     Exchange-correlation= PBE
                           (   1   4   3   4   0   0   0)
     Any further DFT definition will be discarded
     Please, verify this is what you really want

 
     Parallelization info
     --------------------
     sticks:   dense  smooth     PW     G-vecs:    dense   smooth      PW
     Min         148      43     13                 4484      685     127
     Max         149      44     14                 4489      688     132
     Sum        1189     349    109                35901     5497    1033
 
     Using Slab Decomposition
 
     Reading collected, re-writing distributed wavefunctions


     Dynamical matrices for ( 3, 3, 3)  uniform grid of q-points
     (   6 q-points):
       N         xq(1)         xq(2)         xq(3) 
       1   0.000000000   0.000000000   0.000000000
       2   0.000000000   0.000000000   0.311376641
       3   0.000000000   0.384900179   0.000000000
       4   0.000000000   0.384900179   0.311376641
       5   0.333333333   0.577350269   0.000000000
       6   0.333333333   0.577350269   0.311376641

     Calculation of q =    0.0000000   0.0000000   0.3113766

     Subspace diagonalization in iterative solution of the eigenvalue problem:
     a serial algorithm will be used

 
     Parallelization info
     --------------------
     sticks:   dense  smooth     PW     G-vecs:    dense   smooth      PW
     Min         148      43     15                 4484      685     141
     Max         149      44     16                 4489      688     144
     Sum        1189     349    121                35901     5497    1131
 
     Using Slab Decomposition
 

     Title: 
     Phonon calc for qp02                                                       


     bravais-lattice index     =            4
     lattice parameter (alat)  =       5.8733  a.u.
     unit-cell volume          =     187.8355 (a.u.)^3
     number of atoms/cell      =            3
     number of atomic types    =            2
     number of electrons       =        19.00
     number of Kohn-Sham states=           20
     kinetic-energy cutoff     =      36.0000  Ry
     charge density cutoff     =     504.0000  Ry
     Exchange-correlation= PBE
                           (   1   4   3   4   0   0   0)

     celldm(1)=   5.873335  celldm(2)=   0.000000  celldm(3)=   1.070515
     celldm(4)=   0.000000  celldm(5)=   0.000000  celldm(6)=   0.000000

     crystal axes: (cart. coord. in units of alat)
               a(1) = (   1.000000   0.000000   0.000000 )  
               a(2) = (  -0.500000   0.866025   0.000000 )  
               a(3) = (   0.000000   0.000000   1.070515 )  

     reciprocal axes: (cart. coord. in units 2 pi/alat)
               b(1) = (  1.000000  0.577350  0.000000 )  
               b(2) = (  0.000000  1.154701  0.000000 )  
               b(3) = (  0.000000  0.000000  0.934130 )  


     PseudoPot. # 1 for Xx read from file:
     /home/marcocarmonaga/Apps/qe-7.0/pseudo/Nb1.00Mo0.00.upf
     MD5 check sum: e4b562b21cfca1bf7e2ab47e57cae993
     Pseudo is Norm-conserving, Zval = 13.0
     Generated using virtual.x code
     Using radial grid of  602 points, 12 beta functions with: 
                l(1) =   0
                l(2) =   0
                l(3) =   1
                l(4) =   1
                l(5) =   2
                l(6) =   2
                l(7) =   0
                l(8) =   0
                l(9) =   1
               l(10) =   1
               l(11) =   2
               l(12) =   2

     PseudoPot. # 2 for B  read from file:
     /home/marcocarmonaga/Apps/qe-7.0/pseudo/B_ONCV_PBE-1.2.upf
     MD5 check sum: eb3cbeacc2d324d57d903df00f564d27
     Pseudo is Norm-conserving, Zval =  3.0
     Generated using ONCVPSP code by D. R. Hamann
     Using radial grid of  602 points,  4 beta functions with: 
                l(1) =   0
                l(2) =   0
                l(3) =   1
                l(4) =   1

     atomic species   valence    mass     pseudopotential
        Mo            13.00    92.90600     Xx( 1.00)
        B              3.00    10.81000     B ( 1.00)

     24 Sym. Ops., with inversion, found



   Cartesian axes

     site n.     atom                  positions (alat units)
         1           Mo  tau(   1) = (   0.0000000   0.0000000   0.0000000  )
         2           B   tau(   2) = (   0.5000000   0.2886751   0.5352574  )
         3           B   tau(   3) = (   0.0000000   0.5773503   0.5352574  )

     number of k points=  1332  Gaussian smearing, width (Ry)=  0.0150

     Number of k-points >= 100: set verbosity='high' to print them.

     Dense  grid:    35901 G-vectors     FFT dimensions: (  45,  45,  45)

     Smooth grid:     5497 G-vectors     FFT dimensions: (  24,  24,  25)

     Estimated max dynamical RAM per process >      50.31 MB

     Estimated total dynamical RAM >     402.49 MB

     The potential is recalculated from file :
     ./tmp/_ph0/mob2.save/charge-density

     Starting wfcs are    0 atomic +   20 random wfcs

     Band Structure Calculation
     Davidson diagonalization with overlap

     ethr =  5.26E-11,  avg # of iterations = 19.8

     total cpu time spent up to now is       89.0 secs

     End of band structure calculation

     Number of k-points >= 100: set verbosity='high' to print the bands.

     the Fermi energy is    18.4774 ev

     Phonon calc for qp02                                                       

     bravais-lattice index     =            4
     lattice parameter (alat)  =       5.8733  a.u.
     unit-cell volume          =     187.8355 (a.u.)^3
     number of atoms/cell      =            3
     number of atomic types    =            2
     kinetic-energy cut-off    =      36.0000  Ry
     charge density cut-off    =     504.0000  Ry
     convergence threshold     =      1.0E-14
     beta                      =       0.7000
     number of iterations used =            4
     Exchange-correlation= PBE
                           (   1   4   3   4   0   0   0)


     celldm(1)=    5.87334  celldm(2)=    0.00000  celldm(3)=    1.07051
     celldm(4)=    0.00000  celldm(5)=    0.00000  celldm(6)=    0.00000

     crystal axes: (cart. coord. in units of alat)
               a(1) = (  1.0000  0.0000  0.0000 )  
               a(2) = ( -0.5000  0.8660  0.0000 )  
               a(3) = (  0.0000  0.0000  1.0705 )  

     reciprocal axes: (cart. coord. in units 2 pi/alat)
               b(1) = (  1.0000  0.5774  0.0000 )  
               b(2) = (  0.0000  1.1547  0.0000 )  
               b(3) = (  0.0000  0.0000  0.9341 )  


     Atoms inside the unit cell: 

     Cartesian axes

     site n.  atom      mass           positions (alat units)
        1     Mo  92.9060   tau(    1) = (    0.00000    0.00000    0.00000  )
        2     B   10.8100   tau(    2) = (    0.50000    0.28868    0.53526  )
        3     B   10.8100   tau(    3) = (    0.00000    0.57735    0.53526  )

     Computing dynamical matrix for 
                    q = (   0.0000000   0.0000000   0.3113766 )
 
     12 Sym.Ops. (no q -> -q+G )


     G cutoff =  440.3929  (   4486 G-vectors)     FFT grid: ( 45, 45, 45)
     G cutoff =  125.8266  (    687 G-vectors)  smooth grid: ( 24, 24, 25)

     number of k points=  1332  Gaussian smearing, width (Ry)=  0.0150

     PseudoPot. # 1 for Xx read from file:
     /home/marcocarmonaga/Apps/qe-7.0/pseudo/Nb1.00Mo0.00.upf
     MD5 check sum: e4b562b21cfca1bf7e2ab47e57cae993
     Pseudo is Norm-conserving, Zval = 13.0
     Generated using virtual.x code
     Using radial grid of  602 points, 12 beta functions with: 
                l(1) =   0
                l(2) =   0
                l(3) =   1
                l(4) =   1
                l(5) =   2
                l(6) =   2
                l(7) =   0
                l(8) =   0
                l(9) =   1
               l(10) =   1
               l(11) =   2
               l(12) =   2

     PseudoPot. # 2 for B  read from file:
     /home/marcocarmonaga/Apps/qe-7.0/pseudo/B_ONCV_PBE-1.2.upf
     MD5 check sum: eb3cbeacc2d324d57d903df00f564d27
     Pseudo is Norm-conserving, Zval =  3.0
     Generated using ONCVPSP code by D. R. Hamann
     Using radial grid of  602 points,  4 beta functions with: 
                l(1) =   0
                l(2) =   0
                l(3) =   1
                l(4) =   1

     Mode symmetry, C_6v (6mm)  point group:


     Atomic displacements:
     There are    6 irreducible representations

     Representation     1      1 modes -  To be done

     Representation     2      1 modes -  To be done

     Representation     3      1 modes -  To be done

     Representation     4      2 modes -  To be done

     Representation     5      2 modes -  To be done

     Representation     6      2 modes -  To be done



     Alpha used in Ewald sum =   2.8000
     PHONON       :   1m29.71s CPU   1m32.65s WALL



     Representation #   1 mode #   1

     Self-consistent Calculation

      iter #   1 total cpu time :   106.1 secs   av.it.:   9.2
      thresh= 1.000E-02 alpha_mix =  0.700 |ddv_scf|^2 =  1.270E-02

      iter #   2 total cpu time :   119.5 secs   av.it.:  11.3
      thresh= 1.000E-02 alpha_mix =  0.700 |ddv_scf|^2 =  1.440E+00

      iter #   3 total cpu time :   136.3 secs   av.it.:  11.2
      thresh= 1.000E-02 alpha_mix =  0.700 |ddv_scf|^2 =  2.931E-03

      iter #   4 total cpu time :   152.4 secs   av.it.:  10.1
      thresh= 5.414E-03 alpha_mix =  0.700 |ddv_scf|^2 =  4.720E-04

      iter #   5 total cpu time :   164.3 secs   av.it.:   9.6
      thresh= 2.173E-03 alpha_mix =  0.700 |ddv_scf|^2 =  4.391E-06

      iter #   6 total cpu time :   176.0 secs   av.it.:   9.5
      thresh= 2.095E-04 alpha_mix =  0.700 |ddv_scf|^2 =  9.023E-08

      iter #   7 total cpu time :   187.4 secs   av.it.:   9.1
      thresh= 3.004E-05 alpha_mix =  0.700 |ddv_scf|^2 =  1.139E-09

      iter #   8 total cpu time :   199.0 secs   av.it.:   9.4
      thresh= 3.375E-06 alpha_mix =  0.700 |ddv_scf|^2 =  5.840E-12

      iter #   9 total cpu time :   212.4 secs   av.it.:  11.0
      thresh= 2.417E-07 alpha_mix =  0.700 |ddv_scf|^2 =  2.236E-10

      iter #  10 total cpu time :   223.1 secs   av.it.:   8.4
      thresh= 1.495E-06 alpha_mix =  0.700 |ddv_scf|^2 =  9.599E-13

      iter #  11 total cpu time :   235.7 secs   av.it.:  10.6
      thresh= 9.798E-08 alpha_mix =  0.700 |ddv_scf|^2 =  2.093E-13

      iter #  12 total cpu time :   249.2 secs   av.it.:  10.4
      thresh= 4.575E-08 alpha_mix =  0.700 |ddv_scf|^2 =  2.340E-14

      iter #  13 total cpu time :   261.0 secs   av.it.:   9.7
      thresh= 1.530E-08 alpha_mix =  0.700 |ddv_scf|^2 =  1.748E-16

     End of self-consistent calculation

     Convergence has been achieved 


     Representation #   2 mode #   2

     Self-consistent Calculation

      iter #   1 total cpu time :   272.2 secs   av.it.:   7.1
      thresh= 1.000E-02 alpha_mix =  0.700 |ddv_scf|^2 =  1.862E-03

      iter #   2 total cpu time :   285.4 secs   av.it.:  11.2
      thresh= 4.316E-03 alpha_mix =  0.700 |ddv_scf|^2 =  2.398E-01

      iter #   3 total cpu time :   297.5 secs   av.it.:  10.0
      thresh= 1.000E-02 alpha_mix =  0.700 |ddv_scf|^2 =  2.171E-05

      iter #   4 total cpu time :   311.0 secs   av.it.:  11.5
      thresh= 4.660E-04 alpha_mix =  0.700 |ddv_scf|^2 =  1.018E-04

      iter #   5 total cpu time :   322.8 secs   av.it.:   9.8
      thresh= 1.009E-03 alpha_mix =  0.700 |ddv_scf|^2 =  1.108E-06

      iter #   6 total cpu time :   334.1 secs   av.it.:   9.3
      thresh= 1.053E-04 alpha_mix =  0.700 |ddv_scf|^2 =  1.619E-08

      iter #   7 total cpu time :   345.5 secs   av.it.:   9.2
      thresh= 1.272E-05 alpha_mix =  0.700 |ddv_scf|^2 =  3.780E-12

      iter #   8 total cpu time :   358.7 secs   av.it.:  11.1
      thresh= 1.944E-07 alpha_mix =  0.700 |ddv_scf|^2 =  2.117E-12

      iter #   9 total cpu time :   371.1 secs   av.it.:  10.3
      thresh= 1.455E-07 alpha_mix =  0.700 |ddv_scf|^2 =  2.145E-11

      iter #  10 total cpu time :   381.7 secs   av.it.:   8.5
      thresh= 4.632E-07 alpha_mix =  0.700 |ddv_scf|^2 =  2.578E-13

      iter #  11 total cpu time :   393.9 secs   av.it.:  10.2
      thresh= 5.077E-08 alpha_mix =  0.700 |ddv_scf|^2 =  2.371E-14

      iter #  12 total cpu time :   405.8 secs   av.it.:  10.0
      thresh= 1.540E-08 alpha_mix =  0.700 |ddv_scf|^2 =  9.003E-17

     End of self-consistent calculation

     Convergence has been achieved 


     Representation #   3 mode #   3

     Self-consistent Calculation

      iter #   1 total cpu time :   414.9 secs   av.it.:   4.9
      thresh= 1.000E-02 alpha_mix =  0.700 |ddv_scf|^2 =  9.097E-08

      iter #   2 total cpu time :   428.2 secs   av.it.:  11.0
      thresh= 3.016E-05 alpha_mix =  0.700 |ddv_scf|^2 =  3.057E-09

      iter #   3 total cpu time :   440.8 secs   av.it.:  10.3
      thresh= 5.529E-06 alpha_mix =  0.700 |ddv_scf|^2 =  3.454E-10

      iter #   4 total cpu time :   453.4 secs   av.it.:  10.6
      thresh= 1.858E-06 alpha_mix =  0.700 |ddv_scf|^2 =  4.307E-11

      iter #   5 total cpu time :   466.0 secs   av.it.:  10.6
      thresh= 6.563E-07 alpha_mix =  0.700 |ddv_scf|^2 =  7.476E-15

     End of self-consistent calculation

     Convergence has been achieved 


     Representation #   4 modes #   4   5

     Self-consistent Calculation

      iter #   1 total cpu time :   484.6 secs   av.it.:   5.4
      thresh= 1.000E-02 alpha_mix =  0.700 |ddv_scf|^2 =  2.951E-08

      iter #   2 total cpu time :   513.8 secs   av.it.:  12.7
      thresh= 1.718E-05 alpha_mix =  0.700 |ddv_scf|^2 =  1.079E-09

      iter #   3 total cpu time :   542.7 secs   av.it.:  12.7
      thresh= 3.285E-06 alpha_mix =  0.700 |ddv_scf|^2 =  9.665E-11

      iter #   4 total cpu time :   570.3 secs   av.it.:  12.0
      thresh= 9.831E-07 alpha_mix =  0.700 |ddv_scf|^2 =  2.803E-12

      iter #   5 total cpu time :   599.0 secs   av.it.:  12.5
      thresh= 1.674E-07 alpha_mix =  0.700 |ddv_scf|^2 =  5.092E-15

     End of self-consistent calculation

     Convergence has been achieved 


     Representation #   5 modes #   6   7

     Self-consistent Calculation

      iter #   1 total cpu time :   623.7 secs   av.it.:   7.8
      thresh= 1.000E-02 alpha_mix =  0.700 |ddv_scf|^2 =  2.206E-06

      iter #   2 total cpu time :   652.7 secs   av.it.:  12.7
      thresh= 1.485E-04 alpha_mix =  0.700 |ddv_scf|^2 =  1.683E-07

      iter #   3 total cpu time :   681.4 secs   av.it.:  12.5
      thresh= 4.103E-05 alpha_mix =  0.700 |ddv_scf|^2 =  3.356E-10

      iter #   4 total cpu time :   710.0 secs   av.it.:  12.5
      thresh= 1.832E-06 alpha_mix =  0.700 |ddv_scf|^2 =  4.967E-12

      iter #   5 total cpu time :   739.9 secs   av.it.:  12.5
      thresh= 2.229E-07 alpha_mix =  0.700 |ddv_scf|^2 =  1.051E-13

      iter #   6 total cpu time :   769.1 secs   av.it.:  12.9
      thresh= 3.242E-08 alpha_mix =  0.700 |ddv_scf|^2 =  8.670E-16

     End of self-consistent calculation

     Convergence has been achieved 


     Representation #   6 modes #   8   9

     Self-consistent Calculation

      iter #   1 total cpu time :   788.5 secs   av.it.:   5.8
      thresh= 1.000E-02 alpha_mix =  0.700 |ddv_scf|^2 =  9.443E-08

      iter #   2 total cpu time :   817.0 secs   av.it.:  12.4
      thresh= 3.073E-05 alpha_mix =  0.700 |ddv_scf|^2 =  1.897E-09

      iter #   3 total cpu time :   845.5 secs   av.it.:  12.4
      thresh= 4.355E-06 alpha_mix =  0.700 |ddv_scf|^2 =  9.222E-11

      iter #   4 total cpu time :   871.0 secs   av.it.:  10.9
      thresh= 9.603E-07 alpha_mix =  0.700 |ddv_scf|^2 =  2.340E-13

      iter #   5 total cpu time :   899.7 secs   av.it.:  12.5
      thresh= 4.838E-08 alpha_mix =  0.700 |ddv_scf|^2 =  5.641E-16

     End of self-consistent calculation

     Convergence has been achieved 
 
     Number of q in the star =    2
     List of q in the star:
          1   0.000000000   0.000000000   0.311376641
          2   0.000000000   0.000000000  -0.311376641

     Diagonalizing the dynamical matrix

     q = (    0.000000000   0.000000000   0.311376641 ) 

 **************************************************************************
     freq (    1) =       4.333537 [THz] =     144.551229 [cm-1]
     freq (    2) =       4.333537 [THz] =     144.551229 [cm-1]
     freq (    3) =       5.264029 [THz] =     175.589092 [cm-1]
     freq (    4) =      12.386204 [THz] =     413.159281 [cm-1]
     freq (    5) =      12.386204 [THz] =     413.159281 [cm-1]
     freq (    6) =      15.864609 [THz] =     529.186393 [cm-1]
     freq (    7) =      15.960461 [THz] =     532.383683 [cm-1]
     freq (    8) =      22.660500 [THz] =     755.872904 [cm-1]
     freq (    9) =      22.660500 [THz] =     755.872904 [cm-1]
 **************************************************************************

     Mode symmetry, C_6v (6mm)  point group:

     freq (   1-   2) =        144.6  [cm-1]   --> E_1                
     freq (   3-   3) =        175.6  [cm-1]   --> A_1                
     freq (   4-   5) =        413.2  [cm-1]   --> E_1                
     freq (   6-   6) =        529.2  [cm-1]   --> A_1                
     freq (   7-   7) =        532.4  [cm-1]   --> B_1                
     freq (   8-   9) =        755.9  [cm-1]   --> E_2                
 
     init_run     :      0.08s CPU      0.08s WALL (       1 calls)
     electrons    :     86.07s CPU     88.88s WALL (       1 calls)

     Called by init_run:
     wfcinit      :      0.00s CPU      0.00s WALL (       1 calls)
     potinit      :      0.01s CPU      0.01s WALL (       1 calls)
     hinit0       :      0.02s CPU      0.03s WALL (       1 calls)

     Called by electrons:
     c_bands      :     86.02s CPU     88.83s WALL (       1 calls)
     v_of_rho     :      0.02s CPU      0.02s WALL (       2 calls)

     Called by c_bands:
     init_us_2    :      3.33s CPU      3.53s WALL (   41292 calls)
     init_us_2:cp :      3.21s CPU      3.42s WALL (   41292 calls)
     cegterg      :     81.37s CPU     84.04s WALL (    1674 calls)

     Called by *egterg:
     cdiaghg      :     33.29s CPU     34.18s WALL (   27743 calls)
     h_psi        :    588.67s CPU    628.21s WALL (  768717 calls)
     g_psi        :      0.18s CPU      0.18s WALL (   26411 calls)

     Called by h_psi:
     h_psi:calbec :     31.61s CPU     33.70s WALL (  768717 calls)
     vloc_psi     :    522.02s CPU    557.23s WALL (  768717 calls)
     add_vuspsi   :     27.17s CPU     29.07s WALL (  768717 calls)

     General routines
     calbec       :     55.40s CPU     58.97s WALL ( 1538653 calls)
     fft          :      0.40s CPU      0.46s WALL (     832 calls)
     ffts         :      0.60s CPU      0.64s WALL (    6174 calls)
     fftw         :    559.33s CPU    598.24s WALL (11669410 calls)
     interpolate  :      0.08s CPU      0.09s WALL (     126 calls)
 
     Parallel routines
 
     PHONON       :  14m 5.03s CPU  15m 0.33s WALL

     INITIALIZATION: 
     phq_setup    :      0.02s CPU      0.02s WALL (       1 calls)
     phq_init     :      3.08s CPU      3.10s WALL (       1 calls)
 
     phq_init     :      3.08s CPU      3.10s WALL (       1 calls)
     init_vloc    :      0.02s CPU      0.02s WALL (       2 calls)
     init_us_1    :      0.01s CPU      0.03s WALL (       2 calls)
     init_us_2    :      3.33s CPU      3.53s WALL (   41292 calls)
 
     DYNAMICAL MATRIX:
     dynmat0      :      2.75s CPU      2.76s WALL (       1 calls)
     phqscf       :    755.31s CPU    807.65s WALL (       1 calls)
     dynmatrix    :      0.00s CPU      0.00s WALL (       1 calls)
 
     phqscf       :    755.31s CPU    807.65s WALL (       1 calls)
     solve_linter :    752.29s CPU    804.56s WALL (       6 calls)
     drhodv       :      3.02s CPU      3.08s WALL (       6 calls)
 
     dynmat0      :      2.75s CPU      2.76s WALL (       1 calls)
     dynmat_us    :      2.74s CPU      2.76s WALL (       1 calls)
     d2ionq       :      0.00s CPU      0.00s WALL (       1 calls)
 
     dynmat_us    :      2.74s CPU      2.76s WALL (       1 calls)
 
     phqscf       :    755.31s CPU    807.65s WALL (       1 calls)
     solve_linter :    752.29s CPU    804.56s WALL (       6 calls)
 
     solve_linter :    752.29s CPU    804.56s WALL (       6 calls)
     dvqpsi_us    :     21.38s CPU     22.28s WALL (    5994 calls)
     sth_kernel   :    725.49s CPU    776.60s WALL (      46 calls)
     apply_dpot_b :     41.76s CPU     45.06s WALL (   35298 calls)
     ortho        :      4.06s CPU      4.35s WALL (   41292 calls)
     cgsolve      :    625.88s CPU    669.11s WALL (   41292 calls)
     incdrhoscf   :     46.30s CPU     50.04s WALL (   41292 calls)
     dv_of_drho   :      0.64s CPU      0.67s WALL (      62 calls)
     mix_pot      :      0.12s CPU      0.13s WALL (      46 calls)
     psymdvscf    :      4.17s CPU      4.36s WALL (      46 calls)
 
     dvqpsi_us    :     21.38s CPU     22.28s WALL (    5994 calls)
     dvqpsi_us_on :      7.59s CPU      7.87s WALL (    5994 calls)
 
     cgsolve      :    625.88s CPU    669.11s WALL (   41292 calls)
     ch_psi       :    608.09s CPU    649.96s WALL (  739300 calls)
 
     ch_psi       :    608.09s CPU    649.96s WALL (  739300 calls)
     h_psi        :    588.67s CPU    628.21s WALL (  768717 calls)
     last         :     50.83s CPU     54.17s WALL (  739300 calls)
 
     h_psi        :    588.67s CPU    628.21s WALL (  768717 calls)
     add_vuspsi   :     27.17s CPU     29.07s WALL (  768717 calls)
 
     incdrhoscf   :     46.30s CPU     50.04s WALL (   41292 calls)
 
 
      General routines
     calbec       :     55.40s CPU     58.97s WALL ( 1538653 calls)
     fft          :      0.40s CPU      0.46s WALL (     832 calls)
     ffts         :      0.60s CPU      0.64s WALL (    6174 calls)
     fftw         :    559.33s CPU    598.24s WALL (11669410 calls)
 
 
     PHONON       :  14m 5.03s CPU  15m 0.33s WALL

 
   This run was terminated on:  20: 9:17  30May2022            

=------------------------------------------------------------------------------=
   JOB DONE.
=------------------------------------------------------------------------------=
