
     Program PWSCF v.7.0 starts on 11Apr2022 at 18:59:49 

     This program is part of the open-source Quantum ESPRESSO suite
     for quantum simulation of materials; please cite
         "P. Giannozzi et al., J. Phys.:Condens. Matter 21 395502 (2009);
         "P. Giannozzi et al., J. Phys.:Condens. Matter 29 465901 (2017);
         "P. Giannozzi et al., J. Chem. Phys. 152 154105 (2020);
          URL http://www.quantum-espresso.org", 
     in publications or presentations arising from this work. More details at
     http://www.quantum-espresso.org/quote

     Parallel version (MPI), running on     8 processors

     MPI processes distributed on     1 nodes
     R & G space division:  proc/nbgrp/npool/nimage =       8
     2488 MiB available memory on the printing compute node when the environment starts
 
     Reading input from mob2_pw.in

     Current dimensions of program PWSCF are:
     Max number of different atomic species (ntypx) = 10
     Max number of k-points (npk) =  40000
     Max angular momentum in pseudopotentials (lmaxx) =  4

     Subspace diagonalization in iterative solution of the eigenvalue problem:
     a serial algorithm will be used

 
     Parallelization info
     --------------------
     sticks:   dense  smooth     PW     G-vecs:    dense   smooth      PW
     Min          38      38     12                  594      594     110
     Max          41      41     13                  596      596     113
     Sum         313     313     97                 4763     4763     889
 
     Using Slab Decomposition
 


     bravais-lattice index     =            4
     lattice parameter (alat)  =       5.5566  a.u.
     unit-cell volume          =     162.8402 (a.u.)^3
     number of atoms/cell      =            3
     number of atomic types    =            2
     number of electrons       =        20.00
     number of Kohn-Sham states=           20
     kinetic-energy cutoff     =      36.0000  Ry
     charge density cutoff     =     144.0000  Ry
     scf convergence threshold =      1.0E-06
     mixing beta               =       0.7000
     number of iterations used =            8  plain     mixing
     Exchange-correlation= PBE
                           (   1   4   3   4   0   0   0)

     celldm(1)=   5.556570  celldm(2)=   0.000000  celldm(3)=   1.096000
     celldm(4)=   0.000000  celldm(5)=   0.000000  celldm(6)=   0.000000

     crystal axes: (cart. coord. in units of alat)
               a(1) = (   1.000000   0.000000   0.000000 )  
               a(2) = (  -0.500000   0.866025   0.000000 )  
               a(3) = (   0.000000   0.000000   1.096000 )  

     reciprocal axes: (cart. coord. in units 2 pi/alat)
               b(1) = (  1.000000  0.577350  0.000000 )  
               b(2) = (  0.000000  1.154701  0.000000 )  
               b(3) = (  0.000000  0.000000  0.912409 )  


     PseudoPot. # 1 for Mo read from file:
     /home/marcocarmonaga/qe-7.0/pseudo/Mo_ONCV_PBE-1.2.upf
     MD5 check sum: 2665c9f4159700498d9a5f7573bd8e9f
     Pseudo is Norm-conserving, Zval = 14.0
     Generated using ONCVPSP code by D. R. Hamann
     Using radial grid of  602 points,  6 beta functions with: 
                l(1) =   0
                l(2) =   0
                l(3) =   1
                l(4) =   1
                l(5) =   2
                l(6) =   2

     PseudoPot. # 2 for B  read from file:
     /home/marcocarmonaga/qe-7.0/pseudo/B_ONCV_PBE-1.2.upf
     MD5 check sum: eb3cbeacc2d324d57d903df00f564d27
     Pseudo is Norm-conserving, Zval =  3.0
     Generated using ONCVPSP code by D. R. Hamann
     Using radial grid of  602 points,  4 beta functions with: 
                l(1) =   0
                l(2) =   0
                l(3) =   1
                l(4) =   1

     atomic species   valence    mass     pseudopotential
        Mo            14.00    95.95000     Mo( 1.00)
        B              3.00    10.81000     B ( 1.00)

     24 Sym. Ops., with inversion, found



   Cartesian axes

     site n.     atom                  positions (alat units)
         1           Mo  tau(   1) = (   0.0000000   0.0000000   0.0000000  )
         2           B   tau(   2) = (   0.5000000   0.2886751   0.5480000  )
         3           B   tau(   3) = (  -0.0000000   0.5773503   0.5480000  )

     number of k points=   333  Gaussian smearing, width (Ry)=  0.0150

     Number of k-points >= 100: set verbosity='high' to print them.

     Dense  grid:     4763 G-vectors     FFT dimensions: (  24,  24,  24)

     Estimated max dynamical RAM per process >      10.07 MB

     Estimated total dynamical RAM >      80.55 MB

     Initial potential from superposition of free atoms

     starting charge      19.8751, renormalised to      20.0000
     Starting wfcs are random

     total cpu time spent up to now is        6.4 secs

     Self-consistent Calculation

     iteration #  1     ecut=    36.00 Ry     beta= 0.70
     Davidson diagonalization with overlap
     ethr =  1.00E-02,  avg # of iterations =  7.9

     total cpu time spent up to now is       14.3 secs

     total energy              =    -148.24851350 Ry
     estimated scf accuracy    <       0.54850441 Ry

     iteration #  2     ecut=    36.00 Ry     beta= 0.70
     Davidson diagonalization with overlap
     ethr =  2.74E-03,  avg # of iterations =  2.2

     total cpu time spent up to now is       17.7 secs

     total energy              =    -148.26032257 Ry
     estimated scf accuracy    <       1.50388877 Ry

     iteration #  3     ecut=    36.00 Ry     beta= 0.70
     Davidson diagonalization with overlap
     ethr =  2.74E-03,  avg # of iterations =  1.7

     total cpu time spent up to now is       20.7 secs

     total energy              =    -148.54888059 Ry
     estimated scf accuracy    <       0.00461855 Ry

     iteration #  4     ecut=    36.00 Ry     beta= 0.70
     Davidson diagonalization with overlap
     ethr =  2.31E-05,  avg # of iterations =  5.0

     total cpu time spent up to now is       25.2 secs

     total energy              =    -148.54986631 Ry
     estimated scf accuracy    <       0.00021537 Ry

     iteration #  5     ecut=    36.00 Ry     beta= 0.70
     Davidson diagonalization with overlap
     ethr =  1.08E-06,  avg # of iterations =  3.1

     total cpu time spent up to now is       28.4 secs

     total energy              =    -148.54991171 Ry
     estimated scf accuracy    <       0.00001035 Ry

     iteration #  6     ecut=    36.00 Ry     beta= 0.70
     Davidson diagonalization with overlap
     ethr =  5.18E-08,  avg # of iterations =  1.3

     total cpu time spent up to now is       31.2 secs

     End of self-consistent calculation

     Number of k-points >= 100: set verbosity='high' to print the bands.

     the Fermi energy is    21.2655 ev

!    total energy              =    -148.54991297 Ry
     estimated scf accuracy    <       0.00000031 Ry
     smearing contrib. (-TS)   =      -0.00203522 Ry
     internal energy E=F+TS    =    -148.54787775 Ry

     The total energy is F=E-TS. E is the sum of the following terms:
     one-electron contribution =     -13.38446522 Ry
     hartree contribution      =      20.32118464 Ry
     xc contribution           =     -20.44684252 Ry
     ewald contribution        =    -135.03775465 Ry

     convergence has been achieved in   6 iterations

     Writing all to output data dir ./tmp/mob2.save/
 
     init_run     :      4.42s CPU      5.92s WALL (       1 calls)
     electrons    :     22.70s CPU     24.72s WALL (       1 calls)

     Called by init_run:
     wfcinit      :      4.17s CPU      5.57s WALL (       1 calls)
     potinit      :      0.10s CPU      0.15s WALL (       1 calls)
     hinit0       :      0.10s CPU      0.17s WALL (       1 calls)

     Called by electrons:
     c_bands      :     20.57s CPU     22.30s WALL (       6 calls)
     sum_band     :      2.12s CPU      2.41s WALL (       6 calls)
     v_of_rho     :      0.09s CPU      0.13s WALL (       7 calls)
     mix_rho      :      0.00s CPU      0.00s WALL (       6 calls)

     Called by c_bands:
     init_us_2    :      0.22s CPU      0.28s WALL (    4329 calls)
     init_us_2:cp :      0.21s CPU      0.27s WALL (    4329 calls)
     cegterg      :     19.64s CPU     21.32s WALL (    1998 calls)

     Called by *egterg:
     cdiaghg      :      4.78s CPU      5.03s WALL (    9049 calls)
     h_psi        :     16.50s CPU     19.14s WALL (    9382 calls)
     g_psi        :      0.04s CPU      0.04s WALL (    7051 calls)

     Called by h_psi:
     h_psi:calbec :      0.61s CPU      0.66s WALL (    9382 calls)
     vloc_psi     :     15.49s CPU     18.05s WALL (    9382 calls)
     add_vuspsi   :      0.30s CPU      0.33s WALL (    9382 calls)

     General routines
     calbec       :      0.58s CPU      0.63s WALL (    9382 calls)
     fft          :      0.11s CPU      0.22s WALL (      69 calls)
     ffts         :      0.00s CPU      0.00s WALL (       6 calls)
     fftw         :     16.24s CPU     18.97s WALL (  291582 calls)
 
     Parallel routines
 
     PWSCF        :     28.01s CPU     31.92s WALL

 
   This run was terminated on:  19: 0:21  11Apr2022            

=------------------------------------------------------------------------------=
   JOB DONE.
=------------------------------------------------------------------------------=
