
     Program BANDS v.7.0 starts on 28Apr2022 at  1:54: 0 

     This program is part of the open-source Quantum ESPRESSO suite
     for quantum simulation of materials; please cite
         "P. Giannozzi et al., J. Phys.:Condens. Matter 21 395502 (2009);
         "P. Giannozzi et al., J. Phys.:Condens. Matter 29 465901 (2017);
         "P. Giannozzi et al., J. Chem. Phys. 152 154105 (2020);
          URL http://www.quantum-espresso.org", 
     in publications or presentations arising from this work. More details at
     http://www.quantum-espresso.org/quote

     Parallel version (MPI), running on     8 processors

     MPI processes distributed on     1 nodes
     R & G space division:  proc/nbgrp/npool/nimage =       8
     2271 MiB available memory on the printing compute node when the environment starts
 

     Reading xml data from directory:

     ./tmp/mob2.save/

     IMPORTANT: XC functional enforced from input :
     Exchange-correlation= PBE
                           (   1   4   3   4   0   0   0)
     Any further DFT definition will be discarded
     Please, verify this is what you really want

 
     Parallelization info
     --------------------
     sticks:   dense  smooth     PW     G-vecs:    dense   smooth      PW
     Min          39      39     13                  649      649     123
     Max          40      40     14                  654      654     126
     Sum         313     313    109                 5197     5197     997
 
     Using Slab Decomposition
 
     Reading collected, re-writing distributed wavefunctions
     high-symmetry point:  0.0000 0.0000 0.0000   x coordinate   0.0000
     high-symmetry point:  0.0000 0.5774 0.0000   x coordinate   0.5774
     high-symmetry point:  0.3333 0.5774 0.0000   x coordinate   0.9107
     high-symmetry point:  0.0000 0.0000 0.0000   x coordinate   1.5774
     high-symmetry point:  0.0000 0.0000 0.4539   x coordinate   2.0313
     high-symmetry point:  0.0000 0.5774 0.4539   x coordinate   2.6086
     high-symmetry point:  0.3333 0.5774 0.4539   x coordinate   2.9419
     high-symmetry point:  0.0000 0.0000 0.4539   x coordinate   3.6086

     Plottable bands (eV) written to file mob2_bands.bands.gnu
     Bands written to file mob2_bands.bands

 **************************************************************************

                    xk=(   0.00000,   0.00000,   0.00000  )

     point group D_6h(6/mmm)
     there are 12 classes
     the character table:

       E     2C6   2C3   C2    3C2'  3C2'' i     2S3   2S6   s_h   3s_d  3s_v 
A_1g   1.00  1.00  1.00  1.00  1.00  1.00  1.00  1.00  1.00  1.00  1.00  1.00
A_2g   1.00  1.00  1.00  1.00 -1.00 -1.00  1.00  1.00  1.00  1.00 -1.00 -1.00
B_1g   1.00 -1.00  1.00 -1.00  1.00 -1.00  1.00 -1.00  1.00 -1.00  1.00 -1.00
B_2g   1.00 -1.00  1.00 -1.00 -1.00  1.00  1.00 -1.00  1.00 -1.00 -1.00  1.00
E_1g   2.00  1.00 -1.00 -2.00  0.00  0.00  2.00  1.00 -1.00 -2.00  0.00  0.00
E_2g   2.00 -1.00 -1.00  2.00  0.00  0.00  2.00 -1.00 -1.00  2.00  0.00  0.00
A_1u   1.00  1.00  1.00  1.00  1.00  1.00 -1.00 -1.00 -1.00 -1.00 -1.00 -1.00
A_2u   1.00  1.00  1.00  1.00 -1.00 -1.00 -1.00 -1.00 -1.00 -1.00  1.00  1.00
B_1u   1.00 -1.00  1.00 -1.00  1.00 -1.00 -1.00  1.00 -1.00  1.00 -1.00  1.00
B_2u   1.00 -1.00  1.00 -1.00 -1.00  1.00 -1.00  1.00 -1.00  1.00  1.00 -1.00
E_1u   2.00  1.00 -1.00 -2.00  0.00  0.00 -2.00 -1.00  1.00  2.00  0.00  0.00
E_2u   2.00 -1.00 -1.00  2.00  0.00  0.00 -2.00  1.00  1.00 -2.00  0.00  0.00

     the symmetry operations in each class and the name of the first element:

     E        1
                                                                 
     2C6      5    6
                                                                 
     2C3      7    8
                                                                 
     C2       2
                                                                 
     3C2'     4   12   11
                                                                 
     3C2''    3    9   10
                                                                 
     i       13
                                                                 
     2S3     17   18
                                                                 
     2S6     19   20
                                                                 
     s_h     14
                                                                 
     3s_d    16   24   23
                                                                 
     3s_v    15   21   22
                                                                 

     Band symmetry, D_6h(6/mmm) point group:

     e(  1 -  1) =    -42.59794  eV     1   --> A_1g           
     e(  2 -  2) =    -16.76707  eV     1   --> A_2u           
     e(  3 -  4) =    -16.41829  eV     2   --> E_1u           
     e(  5 -  5) =      4.56087  eV     1   --> A_1g           
     e(  6 -  6) =     14.39263  eV     1   --> A_1g           
     e(  7 -  8) =     14.76619  eV     2   --> E_2g           
     e(  9 -  9) =     15.57511  eV     1   --> A_2u           
     e( 10 - 11) =     19.38769  eV     2   --> E_1g           
     e( 12 - 13) =     21.52026  eV     2   --> E_2g           
     e( 14 - 15) =     23.97145  eV     2   --> E_1u           
     e( 16 - 16) =     24.70274  eV     1   --> B_2u           
     e( 17 - 17) =     27.44521  eV     1   --> B_1g           
     e( 18 - 18) =     27.62927  eV     1   --> A_1g           
     e( 19 - 20) =     35.86416  eV     2   --> E_2u           

 **************************************************************************

 **************************************************************************

                    xk=(   0.00000,   0.01443,   0.00000  )

     point group C_2v (mm2) 
     there are  4 classes
     the character table:

       E     C2    s_v   s_v' 
A_1    1.00  1.00  1.00  1.00
A_2    1.00  1.00 -1.00 -1.00
B_1    1.00 -1.00  1.00 -1.00
B_2    1.00 -1.00 -1.00  1.00

     the symmetry operations in each class and the name of the first element:

     E        1
                                                                 
     C2       2
                                                                 
     s_v      3
                                                                 
     s_v'     4
                                                                 

     Band symmetry, C_2v (mm2)  point group:

     e(  1 -  1) =    -42.59783  eV     1   --> A_1  D_1  S_1  
     e(  2 -  2) =    -16.76691  eV     1   --> B_2  D_4  S_4  
     e(  3 -  3) =    -16.41924  eV     1   --> A_1  D_1  S_1  
     e(  4 -  4) =    -16.41851  eV     1   --> B_1  D_3  S_3  
     e(  5 -  5) =      4.56408  eV     1   --> A_1  D_1  S_1  
     e(  6 -  6) =     14.39530  eV     1   --> A_1  D_1  S_1  
     e(  7 -  7) =     14.75819  eV     1   --> A_1  D_1  S_1  
     e(  8 -  8) =     14.76748  eV     1   --> B_1  D_3  S_3  
     e(  9 -  9) =     15.56842  eV     1   --> B_2  D_4  S_4  
     e( 10 - 10) =     19.38625  eV     1   --> A_2  D_2  S_2  
     e( 11 - 11) =     19.39728  eV     1   --> B_2  D_4  S_4  
     e( 12 - 12) =     21.50264  eV     1   --> A_1  D_1  S_1  
     e( 13 - 13) =     21.50554  eV     1   --> B_1  D_3  S_3  
     e( 14 - 14) =     23.98539  eV     1   --> A_1  D_1  S_1  
     e( 15 - 15) =     23.99408  eV     1   --> B_1  D_3  S_3  
     e( 16 - 16) =     24.71376  eV     1   --> A_1  D_1  S_1  
     e( 17 - 17) =     27.43221  eV     1   --> B_2  D_4  S_4  
     e( 18 - 18) =     27.63407  eV     1   --> A_1  D_1  S_1  
     e( 19 - 19) =     35.87031  eV     1   --> A_2  D_2  S_2  
     e( 20 - 20) =     35.88561  eV     1   --> B_2  D_4  S_4  

 **************************************************************************

 **************************************************************************

                    xk=(   0.00000,   0.02887,   0.00000  )

     Band symmetry, C_2v (mm2)  point group:

     e(  1 -  1) =    -42.59750  eV     1   --> A_1  D_1  S_1  
     e(  2 -  2) =    -16.76645  eV     1   --> B_2  D_4  S_4  
     e(  3 -  3) =    -16.42212  eV     1   --> A_1  D_1  S_1  
     e(  4 -  4) =    -16.41916  eV     1   --> B_1  D_3  S_3  
     e(  5 -  5) =      4.57371  eV     1   --> A_1  D_1  S_1  
     e(  6 -  6) =     14.40326  eV     1   --> A_1  D_1  S_1  
     e(  7 -  7) =     14.73435  eV     1   --> A_1  D_1  S_1  
     e(  8 -  8) =     14.77132  eV     1   --> B_1  D_3  S_3  
     e(  9 -  9) =     15.54857  eV     1   --> B_2  D_4  S_4  
     e( 10 - 10) =     19.38195  eV     1   --> A_2  D_2  S_2  
     e( 11 - 11) =     19.42579  eV     1   --> B_2  D_4  S_4  
     e( 12 - 12) =     21.45132  eV     1   --> A_1  D_1  S_1  
     e( 13 - 13) =     21.46309  eV     1   --> B_1  D_3  S_3  
     e( 14 - 14) =     24.02556  eV     1   --> A_1  D_1  S_1  
     e( 15 - 15) =     24.06030  eV     1   --> B_1  D_3  S_3  
     e( 16 - 16) =     24.74680  eV     1   --> A_1  D_1  S_1  
     e( 17 - 17) =     27.39368  eV     1   --> B_2  D_4  S_4  
     e( 18 - 18) =     27.64839  eV     1   --> A_1  D_1  S_1  
     e( 19 - 19) =     35.88876  eV     1   --> A_2  D_2  S_2  
     e( 20 - 20) =     35.94945  eV     1   --> B_2  D_4  S_4  

 **************************************************************************

 **************************************************************************

                    xk=(   0.00000,   0.04330,   0.00000  )

     Band symmetry, C_2v (mm2)  point group:

     e(  1 -  1) =    -42.59697  eV     1   --> A_1  D_1  S_1  
     e(  2 -  2) =    -16.76568  eV     1   --> B_2  D_4  S_4  
     e(  3 -  3) =    -16.42688  eV     1   --> A_1  D_1  S_1  
     e(  4 -  4) =    -16.42026  eV     1   --> B_1  D_3  S_3  
     e(  5 -  5) =      4.58965  eV     1   --> A_1  D_1  S_1  
     e(  6 -  6) =     14.41627  eV     1   --> A_1  D_1  S_1  
     e(  7 -  7) =     14.69492  eV     1   --> A_1  D_1  S_1  
     e(  8 -  8) =     14.77756  eV     1   --> B_1  D_3  S_3  
     e(  9 -  9) =     15.51576  eV     1   --> B_2  D_4  S_4  
     e( 10 - 10) =     19.37484  eV     1   --> A_2  D_2  S_2  
     e( 11 - 11) =     19.47243  eV     1   --> B_2  D_4  S_4  
     e( 12 - 12) =     21.36987  eV     1   --> A_1  D_1  S_1  
     e( 13 - 13) =     21.39705  eV     1   --> B_1  D_3  S_3  
     e( 14 - 14) =     24.08727  eV     1   --> A_1  D_1  S_1  
     e( 15 - 15) =     24.16558  eV     1   --> B_1  D_3  S_3  
     e( 16 - 16) =     24.80090  eV     1   --> A_1  D_1  S_1  
     e( 17 - 17) =     27.32691  eV     1   --> B_2  D_4  S_4  
     e( 18 - 18) =     27.67154  eV     1   --> A_1  D_1  S_1  
     e( 19 - 19) =     35.91924  eV     1   --> A_2  D_2  S_2  
     e( 20 - 20) =     36.05419  eV     1   --> B_2  D_4  S_4  

 **************************************************************************

 **************************************************************************

                    xk=(   0.00000,   0.05774,   0.00000  )

     Band symmetry, C_2v (mm2)  point group:

     e(  1 -  1) =    -42.59621  eV     1   --> A_1  D_1  S_1  
     e(  2 -  2) =    -16.76461  eV     1   --> B_2  D_4  S_4  
     e(  3 -  3) =    -16.43350  eV     1   --> A_1  D_1  S_1  
     e(  4 -  4) =    -16.42178  eV     1   --> B_1  D_3  S_3  
     e(  5 -  5) =      4.61204  eV     1   --> A_1  D_1  S_1  
     e(  6 -  6) =     14.43407  eV     1   --> A_1  D_1  S_1  
     e(  7 -  7) =     14.64100  eV     1   --> A_1  D_1  S_1  
     e(  8 -  8) =     14.78625  eV     1   --> B_1  D_3  S_3  
     e(  9 -  9) =     15.47201  eV     1   --> B_2  D_4  S_4  
     e( 10 - 10) =     19.36495  eV     1   --> A_2  D_2  S_2  
     e( 11 - 11) =     19.53599  eV     1   --> B_2  D_4  S_4  
     e( 12 - 12) =     21.26486  eV     1   --> A_1  D_1  S_1  
     e( 13 - 13) =     21.31364  eV     1   --> B_1  D_3  S_3  
     e( 14 - 14) =     24.16540  eV     1   --> A_1  D_1  S_1  
     e( 15 - 15) =     24.30455  eV     1   --> B_1  D_3  S_3  
     e( 16 - 16) =     24.87791  eV     1   --> A_1  D_1  S_1  
     e( 17 - 17) =     27.24238  eV     1   --> B_2  D_4  S_4  
     e( 18 - 18) =     27.70425  eV     1   --> A_1  D_1  S_1  
     e( 19 - 19) =     35.96204  eV     1   --> A_2  D_2  S_2  
     e( 20 - 20) =     36.19771  eV     1   --> B_2  D_4  S_4  

 **************************************************************************

 **************************************************************************

                    xk=(   0.00000,   0.07217,   0.00000  )

     Band symmetry, C_2v (mm2)  point group:

     e(  1 -  1) =    -42.59525  eV     1   --> A_1  D_1  S_1  
     e(  2 -  2) =    -16.76324  eV     1   --> B_2  D_4  S_4  
     e(  3 -  3) =    -16.44194  eV     1   --> A_1  D_1  S_1  
     e(  4 -  4) =    -16.42372  eV     1   --> B_1  D_3  S_3  
     e(  5 -  5) =      4.64076  eV     1   --> A_1  D_1  S_1  
     e(  6 -  6) =     14.45537  eV     1   --> A_1  D_1  S_1  
     e(  7 -  7) =     14.57409  eV     1   --> A_1  D_1  S_1  
     e(  8 -  8) =     14.79715  eV     1   --> B_1  D_3  S_3  
     e(  9 -  9) =     15.41815  eV     1   --> B_2  D_4  S_4  
     e( 10 - 10) =     19.35239  eV     1   --> A_2  D_2  S_2  
     e( 11 - 11) =     19.61492  eV     1   --> B_2  D_4  S_4  
     e( 12 - 12) =     21.14150  eV     1   --> A_1  D_1  S_1  
     e( 13 - 13) =     21.21828  eV     1   --> B_1  D_3  S_3  
     e( 14 - 14) =     24.25339  eV     1   --> A_1  D_1  S_1  
     e( 15 - 15) =     24.47146  eV     1   --> B_1  D_3  S_3  
     e( 16 - 16) =     24.97685  eV     1   --> A_1  D_1  S_1  
     e( 17 - 17) =     27.13880  eV     1   --> B_2  D_4  S_4  
     e( 18 - 18) =     27.74559  eV     1   --> A_1  D_1  S_1  
     e( 19 - 19) =     36.01685  eV     1   --> A_2  D_2  S_2  
     e( 20 - 20) =     36.37712  eV     1   --> B_2  D_4  S_4  

 **************************************************************************

 **************************************************************************

                    xk=(   0.00000,   0.08660,   0.00000  )

     Band symmetry, C_2v (mm2)  point group:

     e(  1 -  1) =    -42.59408  eV     1   --> A_1  D_1  S_1  
     e(  2 -  2) =    -16.76158  eV     1   --> B_2  D_4  S_4  
     e(  3 -  3) =    -16.45213  eV     1   --> A_1  D_1  S_1  
     e(  4 -  4) =    -16.42606  eV     1   --> B_1  D_3  S_3  
     e(  5 -  5) =      4.67590  eV     1   --> A_1  D_1  S_1  
     e(  6 -  6) =     14.46506  eV     1   --> A_1  D_1  S_1  
     e(  7 -  7) =     14.50986  eV     1   --> A_1  D_1  S_1  
     e(  8 -  8) =     14.81004  eV     1   --> B_1  D_3  S_3  
     e(  9 -  9) =     15.35605  eV     1   --> B_2  D_4  S_4  
     e( 10 - 10) =     19.33726  eV     1   --> A_2  D_2  S_2  
     e( 11 - 11) =     19.70754  eV     1   --> B_2  D_4  S_4  
     e( 12 - 12) =     21.00529  eV     1   --> A_1  D_1  S_1  
     e( 13 - 13) =     21.11596  eV     1   --> B_1  D_3  S_3  
     e( 14 - 14) =     24.34703  eV     1   --> A_1  D_1  S_1  
     e( 15 - 15) =     24.66174  eV     1   --> B_1  D_3  S_3  
     e( 16 - 16) =     25.09747  eV     1   --> A_1  D_1  S_1  
     e( 17 - 17) =     27.01934  eV     1   --> B_2  D_4  S_4  
     e( 18 - 18) =     27.79499  eV     1   --> A_1  D_1  S_1  
     e( 19 - 19) =     36.08366  eV     1   --> A_2  D_2  S_2  
     e( 20 - 20) =     36.58932  eV     1   --> B_2  D_4  S_4  

 **************************************************************************

 **************************************************************************

                    xk=(   0.00000,   0.10104,   0.00000  )

     Band symmetry, C_2v (mm2)  point group:

     e(  1 -  1) =    -42.59272  eV     1   --> A_1  D_1  S_1  
     e(  2 -  2) =    -16.75964  eV     1   --> B_2  D_4  S_4  
     e(  3 -  3) =    -16.46400  eV     1   --> A_1  D_1  S_1  
     e(  4 -  4) =    -16.42879  eV     1   --> B_1  D_3  S_3  
     e(  5 -  5) =      4.71724  eV     1   --> A_1  D_1  S_1  
     e(  6 -  6) =     14.38891  eV     1   --> A_1  D_1  S_1  
     e(  7 -  7) =     14.52294  eV     1   --> A_1  D_1  S_1  
     e(  8 -  8) =     14.82465  eV     1   --> B_1  D_3  S_3  
     e(  9 -  9) =     15.28625  eV     1   --> B_2  D_4  S_4  
     e( 10 - 10) =     19.31968  eV     1   --> A_2  D_2  S_2  
     e( 11 - 11) =     19.81180  eV     1   --> B_2  D_4  S_4  
     e( 12 - 12) =     20.86046  eV     1   --> A_1  D_1  S_1  
     e( 13 - 13) =     21.01058  eV     1   --> B_1  D_3  S_3  
     e( 14 - 14) =     24.44076  eV     1   --> A_1  D_1  S_1  
     e( 15 - 15) =     24.87089  eV     1   --> B_1  D_3  S_3  
     e( 16 - 16) =     25.23830  eV     1   --> A_1  D_1  S_1  
     e( 17 - 17) =     26.88575  eV     1   --> B_2  D_4  S_4  
     e( 18 - 18) =     27.85138  eV     1   --> A_1  D_1  S_1  
     e( 19 - 19) =     36.16187  eV     1   --> A_2  D_2  S_2  
     e( 20 - 20) =     36.83079  eV     1   --> B_2  D_4  S_4  

 **************************************************************************

 **************************************************************************

                    xk=(   0.00000,   0.11547,   0.00000  )

     Band symmetry, C_2v (mm2)  point group:

     e(  1 -  1) =    -42.59117  eV     1   --> A_1  D_1  S_1  
     e(  2 -  2) =    -16.75744  eV     1   --> B_2  D_4  S_4  
     e(  3 -  3) =    -16.47748  eV     1   --> A_1  D_1  S_1  
     e(  4 -  4) =    -16.43190  eV     1   --> B_1  D_3  S_3  
     e(  5 -  5) =      4.76450  eV     1   --> A_1  D_1  S_1  
     e(  6 -  6) =     14.28508  eV     1   --> A_1  D_1  S_1  
     e(  7 -  7) =     14.55603  eV     1   --> A_1  D_1  S_1  
     e(  8 -  8) =     14.84075  eV     1   --> B_1  D_3  S_3  
     e(  9 -  9) =     15.21068  eV     1   --> B_2  D_4  S_4  
     e( 10 - 10) =     19.29979  eV     1   --> A_2  D_2  S_2  
     e( 11 - 11) =     19.92589  eV     1   --> B_2  D_4  S_4  
     e( 12 - 12) =     20.71149  eV     1   --> A_1  D_1  S_1  
     e( 13 - 13) =     20.90536  eV     1   --> B_1  D_3  S_3  
     e( 14 - 14) =     24.53097  eV     1   --> A_1  D_1  S_1  
     e( 15 - 15) =     25.09609  eV     1   --> B_1  D_3  S_3  
     e( 16 - 16) =     25.39958  eV     1   --> A_1  D_1  S_1  
     e( 17 - 17) =     26.74471  eV     1   --> B_2  D_4  S_4  
     e( 18 - 18) =     27.91401  eV     1   --> A_1  D_1  S_1  
     e( 19 - 19) =     36.25146  eV     1   --> A_2  D_2  S_2  
     e( 20 - 20) =     37.09859  eV     1   --> B_2  D_4  S_4  

 **************************************************************************

 **************************************************************************

                    xk=(   0.00000,   0.12990,   0.00000  )

     Band symmetry, C_2v (mm2)  point group:

     e(  1 -  1) =    -42.58944  eV     1   --> A_1  D_1  S_1  
     e(  2 -  2) =    -16.75499  eV     1   --> B_2  D_4  S_4  
     e(  3 -  3) =    -16.49247  eV     1   --> A_1  D_1  S_1  
     e(  4 -  4) =    -16.43536  eV     1   --> B_1  D_3  S_3  
     e(  5 -  5) =      4.81788  eV     1   --> A_1  D_1  S_1  
     e(  6 -  6) =     14.17003  eV     1   --> A_1  D_1  S_1  
     e(  7 -  7) =     14.59320  eV     1   --> A_1  D_1  S_1  
     e(  8 -  8) =     14.85803  eV     1   --> B_1  D_3  S_3  
     e(  9 -  9) =     15.13062  eV     1   --> B_2  D_4  S_4  
     e( 10 - 10) =     19.27775  eV     1   --> A_2  D_2  S_2  
     e( 11 - 11) =     20.04779  eV     1   --> B_2  D_4  S_4  
     e( 12 - 12) =     20.56169  eV     1   --> A_1  D_1  S_1  
     e( 13 - 13) =     20.80283  eV     1   --> B_1  D_3  S_3  
     e( 14 - 14) =     24.61662  eV     1   --> A_1  D_1  S_1  
     e( 15 - 15) =     25.33507  eV     1   --> B_1  D_3  S_3  
     e( 16 - 16) =     25.57906  eV     1   --> A_1  D_1  S_1  
     e( 17 - 17) =     26.59774  eV     1   --> B_2  D_4  S_4  
     e( 18 - 18) =     27.98161  eV     1   --> A_1  D_1  S_1  
     e( 19 - 19) =     36.35223  eV     1   --> A_2  D_2  S_2  
     e( 20 - 20) =     37.38820  eV     1   --> B_2  D_4  S_4  

 **************************************************************************

 **************************************************************************

                    xk=(   0.00000,   0.14434,   0.00000  )

     Band symmetry, C_2v (mm2)  point group:

     e(  1 -  1) =    -42.58754  eV     1   --> A_1  D_1  S_1  
     e(  2 -  2) =    -16.75229  eV     1   --> B_2  D_4  S_4  
     e(  3 -  3) =    -16.50886  eV     1   --> A_1  D_1  S_1  
     e(  4 -  4) =    -16.43915  eV     1   --> B_1  D_3  S_3  
     e(  5 -  5) =      4.87735  eV     1   --> A_1  D_1  S_1  
     e(  6 -  6) =     14.04524  eV     1   --> A_1  D_1  S_1  
     e(  7 -  7) =     14.63270  eV     1   --> A_1  D_1  S_1  
     e(  8 -  8) =     14.87618  eV     1   --> B_1  D_3  S_3  
     e(  9 -  9) =     15.04726  eV     1   --> B_2  D_4  S_4  
     e( 10 - 10) =     19.25375  eV     1   --> A_2  D_2  S_2  
     e( 11 - 11) =     20.17557  eV     1   --> B_2  D_4  S_4  
     e( 12 - 12) =     20.41430  eV     1   --> A_1  D_1  S_1  
     e( 13 - 13) =     20.70466  eV     1   --> B_1  D_3  S_3  
     e( 14 - 14) =     24.69578  eV     1   --> A_1  D_1  S_1  
     e( 15 - 15) =     25.58729  eV     1   --> B_1  D_3  S_3  
     e( 16 - 16) =     25.77423  eV     1   --> A_1  D_1  S_1  
     e( 17 - 17) =     26.44665  eV     1   --> B_2  D_4  S_4  
     e( 18 - 18) =     28.05252  eV     1   --> A_1  D_1  S_1  
     e( 19 - 19) =     36.46356  eV     1   --> A_2  D_2  S_2  
     e( 20 - 20) =     37.69660  eV     1   --> B_2  D_4  S_4  

 **************************************************************************

 **************************************************************************

                    xk=(   0.00000,   0.15877,   0.00000  )

     Band symmetry, C_2v (mm2)  point group:

     e(  1 -  1) =    -42.58550  eV     1   --> A_1  D_1  S_1  
     e(  2 -  2) =    -16.74938  eV     1   --> B_2  D_4  S_4  
     e(  3 -  3) =    -16.52657  eV     1   --> A_1  D_1  S_1  
     e(  4 -  4) =    -16.44325  eV     1   --> B_1  D_3  S_3  
     e(  5 -  5) =      4.94208  eV     1   --> A_1  D_1  S_1  
     e(  6 -  6) =     13.91159  eV     1   --> A_1  D_1  S_1  
     e(  7 -  7) =     14.67339  eV     1   --> A_1  D_1  S_1  
     e(  8 -  8) =     14.89460  eV     1   --> B_1  D_3  S_3  
     e(  9 -  9) =     14.96153  eV     1   --> B_2  D_4  S_4  
     e( 10 - 10) =     19.22795  eV     1   --> A_2  D_2  S_2  
     e( 11 - 11) =     20.27063  eV     1   --> A_1  D_1  S_1  
     e( 12 - 12) =     20.30721  eV     1   --> B_2  D_4  S_4  
     e( 13 - 13) =     20.61229  eV     1   --> B_1  D_3  S_3  
     e( 14 - 14) =     24.76758  eV     1   --> A_1  D_1  S_1  
     e( 15 - 15) =     25.84877  eV     1   --> B_1  D_3  S_3  
     e( 16 - 16) =     25.98476  eV     1   --> A_1  D_1  S_1  
     e( 17 - 17) =     26.29672  eV     1   --> B_2  D_4  S_4  
     e( 18 - 18) =     28.12314  eV     1   --> A_1  D_1  S_1  
     e( 19 - 19) =     36.58538  eV     1   --> A_2  D_2  S_2  
     e( 20 - 20) =     38.01970  eV     1   --> B_2  D_4  S_4  

 **************************************************************************

 **************************************************************************

                    xk=(   0.00000,   0.17321,   0.00000  )

     Band symmetry, C_2v (mm2)  point group:

     e(  1 -  1) =    -42.58330  eV     1   --> A_1  D_1  S_1  
     e(  2 -  2) =    -16.74626  eV     1   --> B_2  D_4  S_4  
     e(  3 -  3) =    -16.54545  eV     1   --> A_1  D_1  S_1  
     e(  4 -  4) =    -16.44763  eV     1   --> B_1  D_3  S_3  
     e(  5 -  5) =      5.01282  eV     1   --> A_1  D_1  S_1  
     e(  6 -  6) =     13.77059  eV     1   --> A_1  D_1  S_1  
     e(  7 -  7) =     14.71431  eV     1   --> A_1  D_1  S_1  
     e(  8 -  8) =     14.87465  eV     1   --> B_2  D_4  S_4  
     e(  9 -  9) =     14.91306  eV     1   --> B_1  D_3  S_3  
     e( 10 - 10) =     19.20057  eV     1   --> A_2  D_2  S_2  
     e( 11 - 11) =     20.13439  eV     1   --> A_1  D_1  S_1  
     e( 12 - 12) =     20.44075  eV     1   --> B_2  D_4  S_4  
     e( 13 - 13) =     20.52698  eV     1   --> B_1  D_3  S_3  
     e( 14 - 14) =     24.83384  eV     1   --> A_1  D_1  S_1  
     e( 15 - 15) =     26.11983  eV     1   --> B_1  D_3  S_3  
     e( 16 - 16) =     26.14995  eV     1   --> B_2  D_4  S_4  
     e( 17 - 17) =     26.20821  eV     1   --> A_1  D_1  S_1  
     e( 18 - 18) =     28.19567  eV     1   --> A_1  D_1  S_1  
     e( 19 - 19) =     36.71725  eV     1   --> A_2  D_2  S_2  
     e( 20 - 20) =     38.35351  eV     1   --> B_2  D_4  S_4  

 **************************************************************************

 **************************************************************************

                    xk=(   0.00000,   0.18764,   0.00000  )

     Band symmetry, C_2v (mm2)  point group:

     e(  1 -  1) =    -42.58099  eV     1   --> A_1  D_1  S_1  
     e(  2 -  2) =    -16.74296  eV     1   --> B_2  D_4  S_4  
     e(  3 -  3) =    -16.56538  eV     1   --> A_1  D_1  S_1  
     e(  4 -  4) =    -16.45226  eV     1   --> B_1  D_3  S_3  
     e(  5 -  5) =      5.08904  eV     1   --> A_1  D_1  S_1  
     e(  6 -  6) =     13.62303  eV     1   --> A_1  D_1  S_1  
     e(  7 -  7) =     14.75425  eV     1   --> A_1  D_1  S_1  
     e(  8 -  8) =     14.78714  eV     1   --> B_2  D_4  S_4  
     e(  9 -  9) =     14.93085  eV     1   --> B_1  D_3  S_3  
     e( 10 - 10) =     19.17179  eV     1   --> A_2  D_2  S_2  
     e( 11 - 11) =     20.00736  eV     1   --> A_1  D_1  S_1  
     e( 12 - 12) =     20.44917  eV     1   --> B_1  D_3  S_3  
     e( 13 - 13) =     20.57388  eV     1   --> B_2  D_4  S_4  
     e( 14 - 14) =     24.89279  eV     1   --> A_1  D_1  S_1  
     e( 15 - 15) =     26.00737  eV     1   --> B_2  D_4  S_4  
     e( 16 - 16) =     26.39945  eV     1   --> B_1  D_3  S_3  
     e( 17 - 17) =     26.44261  eV     1   --> A_1  D_1  S_1  
     e( 18 - 18) =     28.26608  eV     1   --> A_1  D_1  S_1  
     e( 19 - 19) =     36.85869  eV     1   --> A_2  D_2  S_2  
     e( 20 - 20) =     38.59520  eV     1   --> A_1  D_1  S_1  

 **************************************************************************

 **************************************************************************

                    xk=(   0.00000,   0.20207,   0.00000  )

     Band symmetry, C_2v (mm2)  point group:

     e(  1 -  1) =    -42.57855  eV     1   --> A_1  D_1  S_1  
     e(  2 -  2) =    -16.73949  eV     1   --> B_2  D_4  S_4  
     e(  3 -  3) =    -16.58624  eV     1   --> A_1  D_1  S_1  
     e(  4 -  4) =    -16.45711  eV     1   --> B_1  D_3  S_3  
     e(  5 -  5) =      5.17076  eV     1   --> A_1  D_1  S_1  
     e(  6 -  6) =     13.46983  eV     1   --> A_1  D_1  S_1  
     e(  7 -  7) =     14.69999  eV     1   --> B_2  D_4  S_4  
     e(  8 -  8) =     14.79204  eV     1   --> A_1  D_1  S_1  
     e(  9 -  9) =     14.94819  eV     1   --> B_1  D_3  S_3  
     e( 10 - 10) =     19.14184  eV     1   --> A_2  D_2  S_2  
     e( 11 - 11) =     19.89189  eV     1   --> A_1  D_1  S_1  
     e( 12 - 12) =     20.38047  eV     1   --> B_1  D_3  S_3  
     e( 13 - 13) =     20.70482  eV     1   --> B_2  D_4  S_4  
     e( 14 - 14) =     24.94582  eV     1   --> A_1  D_1  S_1  
     e( 15 - 15) =     25.87537  eV     1   --> B_2  D_4  S_4  
     e( 16 - 17) =     26.68693  eV     2   --> A_1  D_1  S_1  
     e( 16 - 17) =     26.68693  eV     2   --> B_1  D_3  S_3  
     e( 18 - 18) =     28.33283  eV     1   --> A_1  D_1  S_1  
     e( 19 - 19) =     37.00933  eV     1   --> A_2  D_2  S_2  
     e( 20 - 20) =     38.59632  eV     1   --> A_1  D_1  S_1  

 **************************************************************************

 **************************************************************************

                    xk=(   0.00000,   0.21651,   0.00000  )

     Band symmetry, C_2v (mm2)  point group:

     e(  1 -  1) =    -42.57601  eV     1   --> A_1  D_1  S_1  
     e(  2 -  2) =    -16.73588  eV     1   --> B_2  D_4  S_4  
     e(  3 -  3) =    -16.60789  eV     1   --> A_1  D_1  S_1  
     e(  4 -  4) =    -16.46216  eV     1   --> B_1  D_3  S_3  
     e(  5 -  5) =      5.25783  eV     1   --> A_1  D_1  S_1  
     e(  6 -  6) =     13.31205  eV     1   --> A_1  D_1  S_1  
     e(  7 -  7) =     14.61370  eV     1   --> B_2  D_4  S_4  
     e(  8 -  8) =     14.82643  eV     1   --> A_1  D_1  S_1  
     e(  9 -  9) =     14.96458  eV     1   --> B_1  D_3  S_3  
     e( 10 - 10) =     19.11093  eV     1   --> A_2  D_2  S_2  
     e( 11 - 11) =     19.79038  eV     1   --> A_1  D_1  S_1  
     e( 12 - 12) =     20.32099  eV     1   --> B_1  D_3  S_3  
     e( 13 - 13) =     20.83115  eV     1   --> B_2  D_4  S_4  
     e( 14 - 14) =     24.99316  eV     1   --> A_1  D_1  S_1  
     e( 15 - 15) =     25.75539  eV     1   --> B_2  D_4  S_4  
     e( 16 - 16) =     26.93974  eV     1   --> A_1  D_1  S_1  
     e( 17 - 17) =     26.98316  eV     1   --> B_1  D_3  S_3  
     e( 18 - 18) =     28.39401  eV     1   --> A_1  D_1  S_1  
     e( 19 - 19) =     37.16901  eV     1   --> A_2  D_2  S_2  
     e( 20 - 20) =     38.57561  eV     1   --> A_1  D_1  S_1  

 **************************************************************************

 **************************************************************************

                    xk=(   0.00000,   0.23094,   0.00000  )

     Band symmetry, C_2v (mm2)  point group:

     e(  1 -  1) =    -42.57340  eV     1   --> A_1  D_1  S_1  
     e(  2 -  2) =    -16.73214  eV     1   --> B_2  D_4  S_4  
     e(  3 -  3) =    -16.63018  eV     1   --> A_1  D_1  S_1  
     e(  4 -  4) =    -16.46737  eV     1   --> B_1  D_3  S_3  
     e(  5 -  5) =      5.34981  eV     1   --> A_1  D_1  S_1  
     e(  6 -  6) =     13.14963  eV     1   --> A_1  D_1  S_1  
     e(  7 -  7) =     14.52854  eV     1   --> B_2  D_4  S_4  
     e(  8 -  8) =     14.85615  eV     1   --> A_1  D_1  S_1  
     e(  9 -  9) =     14.97933  eV     1   --> B_1  D_3  S_3  
     e( 10 - 10) =     19.07925  eV     1   --> A_2  D_2  S_2  
     e( 11 - 11) =     19.70398  eV     1   --> A_1  D_1  S_1  
     e( 12 - 12) =     20.27084  eV     1   --> B_1  D_3  S_3  
     e( 13 - 13) =     20.95042  eV     1   --> B_2  D_4  S_4  
     e( 14 - 14) =     25.03516  eV     1   --> A_1  D_1  S_1  
     e( 15 - 15) =     25.64906  eV     1   --> B_2  D_4  S_4  
     e( 16 - 16) =     27.19870  eV     1   --> A_1  D_1  S_1  
     e( 17 - 17) =     27.28360  eV     1   --> B_1  D_3  S_3  
     e( 18 - 18) =     28.44682  eV     1   --> A_1  D_1  S_1  
     e( 19 - 19) =     37.33634  eV     1   --> A_2  D_2  S_2  
     e( 20 - 20) =     38.52640  eV     1   --> A_1  D_1  S_1  

 **************************************************************************

 **************************************************************************

                    xk=(   0.00000,   0.24537,   0.00000  )

     Band symmetry, C_2v (mm2)  point group:

     e(  1 -  1) =    -42.57071  eV     1   --> A_1  D_1  S_1  
     e(  2 -  2) =    -16.72831  eV     1   --> B_2  D_4  S_4  
     e(  3 -  3) =    -16.65298  eV     1   --> A_1  D_1  S_1  
     e(  4 -  4) =    -16.47271  eV     1   --> B_1  D_3  S_3  
     e(  5 -  5) =      5.44707  eV     1   --> A_1  D_1  S_1  
     e(  6 -  6) =     12.98351  eV     1   --> A_1  D_1  S_1  
     e(  7 -  7) =     14.44522  eV     1   --> B_2  D_4  S_4  
     e(  8 -  8) =     14.88009  eV     1   --> A_1  D_1  S_1  
     e(  9 -  9) =     14.99237  eV     1   --> B_1  D_3  S_3  
     e( 10 - 10) =     19.04704  eV     1   --> A_2  D_2  S_2  
     e( 11 - 11) =     19.63479  eV     1   --> A_1  D_1  S_1  
     e( 12 - 12) =     20.23061  eV     1   --> B_1  D_3  S_3  
     e( 13 - 13) =     21.06045  eV     1   --> B_2  D_4  S_4  
     e( 14 - 14) =     25.07231  eV     1   --> A_1  D_1  S_1  
     e( 15 - 15) =     25.55954  eV     1   --> B_2  D_4  S_4  
     e( 16 - 16) =     27.46204  eV     1   --> A_1  D_1  S_1  
     e( 17 - 17) =     27.59105  eV     1   --> B_1  D_3  S_3  
     e( 18 - 18) =     28.49272  eV     1   --> A_1  D_1  S_1  
     e( 19 - 19) =     37.51138  eV     1   --> A_2  D_2  S_2  
     e( 20 - 20) =     38.44621  eV     1   --> A_1  D_1  S_1  

 **************************************************************************

 **************************************************************************

                    xk=(   0.00000,   0.25981,   0.00000  )

     Band symmetry, C_2v (mm2)  point group:

     e(  1 -  1) =    -42.56795  eV     1   --> A_1  D_1  S_1  
     e(  2 -  2) =    -16.72440  eV     1   --> B_2  D_4  S_4  
     e(  3 -  3) =    -16.67614  eV     1   --> A_1  D_1  S_1  
     e(  4 -  4) =    -16.47814  eV     1   --> B_1  D_3  S_3  
     e(  5 -  5) =      5.54957  eV     1   --> A_1  D_1  S_1  
     e(  6 -  6) =     12.81427  eV     1   --> A_1  D_1  S_1  
     e(  7 -  7) =     14.36402  eV     1   --> B_2  D_4  S_4  
     e(  8 -  8) =     14.89719  eV     1   --> A_1  D_1  S_1  
     e(  9 -  9) =     15.00351  eV     1   --> B_1  D_3  S_3  
     e( 10 - 10) =     19.01450  eV     1   --> A_2  D_2  S_2  
     e( 11 - 11) =     19.58444  eV     1   --> A_1  D_1  S_1  
     e( 12 - 12) =     20.20054  eV     1   --> B_1  D_3  S_3  
     e( 13 - 13) =     21.15887  eV     1   --> B_2  D_4  S_4  
     e( 14 - 14) =     25.10550  eV     1   --> A_1  D_1  S_1  
     e( 15 - 15) =     25.48929  eV     1   --> B_2  D_4  S_4  
     e( 16 - 16) =     27.72668  eV     1   --> A_1  D_1  S_1  
     e( 17 - 17) =     27.90614  eV     1   --> B_1  D_3  S_3  
     e( 18 - 18) =     28.53099  eV     1   --> A_1  D_1  S_1  
     e( 19 - 19) =     37.69343  eV     1   --> A_2  D_2  S_2  
     e( 20 - 20) =     38.33428  eV     1   --> A_1  D_1  S_1  

 **************************************************************************

 **************************************************************************

                    xk=(   0.00000,   0.27424,   0.00000  )

     Band symmetry, C_2v (mm2)  point group:

     e(  1 -  1) =    -42.56517  eV     1   --> A_1  D_1  S_1  
     e(  2 -  2) =    -16.72044  eV     1   --> B_2  D_4  S_4  
     e(  3 -  3) =    -16.69952  eV     1   --> A_1  D_1  S_1  
     e(  4 -  4) =    -16.48364  eV     1   --> B_1  D_3  S_3  
     e(  5 -  5) =      5.65646  eV     1   --> A_1  D_1  S_1  
     e(  6 -  6) =     12.64221  eV     1   --> A_1  D_1  S_1  
     e(  7 -  7) =     14.28522  eV     1   --> B_2  D_4  S_4  
     e(  8 -  8) =     14.90664  eV     1   --> A_1  D_1  S_1  
     e(  9 -  9) =     15.01241  eV     1   --> B_1  D_3  S_3  
     e( 10 - 10) =     18.98184  eV     1   --> A_2  D_2  S_2  
     e( 11 - 11) =     19.55365  eV     1   --> A_1  D_1  S_1  
     e( 12 - 12) =     20.17993  eV     1   --> B_1  D_3  S_3  
     e( 13 - 13) =     21.24361  eV     1   --> B_2  D_4  S_4  
     e( 14 - 14) =     25.13410  eV     1   --> A_1  D_1  S_1  
     e( 15 - 15) =     25.44042  eV     1   --> B_2  D_4  S_4  
     e( 16 - 16) =     27.98560  eV     1   --> A_1  D_1  S_1  
     e( 17 - 17) =     28.22437  eV     1   --> B_1  D_3  S_3  
     e( 18 - 18) =     28.56543  eV     1   --> A_1  D_1  S_1  
     e( 19 - 19) =     37.88178  eV     1   --> A_2  D_2  S_2  
     e( 20 - 20) =     38.19264  eV     1   --> A_1  D_1  S_1  

 **************************************************************************

 **************************************************************************

                    xk=(   0.00000,   0.28868,   0.00000  )

     Band symmetry, C_2v (mm2)  point group:

     e(  1 -  1) =    -42.56237  eV     1   --> A_1  D_1  S_1  
     e(  2 -  2) =    -16.72296  eV     1   --> A_1  D_1  S_1  
     e(  3 -  3) =    -16.71645  eV     1   --> B_2  D_4  S_4  
     e(  4 -  4) =    -16.48916  eV     1   --> B_1  D_3  S_3  
     e(  5 -  5) =      5.76795  eV     1   --> A_1  D_1  S_1  
     e(  6 -  6) =     12.46780  eV     1   --> A_1  D_1  S_1  
     e(  7 -  7) =     14.20910  eV     1   --> B_2  D_4  S_4  
     e(  8 -  8) =     14.90793  eV     1   --> A_1  D_1  S_1  
     e(  9 -  9) =     15.01903  eV     1   --> B_1  D_3  S_3  
     e( 10 - 10) =     18.94926  eV     1   --> A_2  D_2  S_2  
     e( 11 - 11) =     19.54334  eV     1   --> A_1  D_1  S_1  
     e( 12 - 12) =     20.16890  eV     1   --> B_1  D_3  S_3  
     e( 13 - 13) =     21.31301  eV     1   --> B_2  D_4  S_4  
     e( 14 - 14) =     25.15902  eV     1   --> A_1  D_1  S_1  
     e( 15 - 15) =     25.41454  eV     1   --> B_2  D_4  S_4  
     e( 16 - 16) =     28.21753  eV     1   --> A_1  D_1  S_1  
     e( 17 - 17) =     28.54726  eV     1   --> B_1  D_3  S_3  
     e( 18 - 18) =     28.61515  eV     1   --> A_1  D_1  S_1  
     e( 19 - 19) =     38.02762  eV     1   --> A_1  D_1  S_1  
     e( 20 - 20) =     38.07575  eV     1   --> A_2  D_2  S_2  

 **************************************************************************

 **************************************************************************

                    xk=(   0.00000,   0.30311,   0.00000  )

     Band symmetry, C_2v (mm2)  point group:

     e(  1 -  1) =    -42.55957  eV     1   --> A_1  D_1  S_1  
     e(  2 -  2) =    -16.74633  eV     1   --> A_1  D_1  S_1  
     e(  3 -  3) =    -16.71245  eV     1   --> B_2  D_4  S_4  
     e(  4 -  4) =    -16.49468  eV     1   --> B_1  D_3  S_3  
     e(  5 -  5) =      5.88388  eV     1   --> A_1  D_1  S_1  
     e(  6 -  6) =     12.29139  eV     1   --> A_1  D_1  S_1  
     e(  7 -  7) =     14.13587  eV     1   --> B_2  D_4  S_4  
     e(  8 -  8) =     14.90092  eV     1   --> A_1  D_1  S_1  
     e(  9 -  9) =     15.02332  eV     1   --> B_1  D_3  S_3  
     e( 10 - 10) =     18.91696  eV     1   --> A_2  D_2  S_2  
     e( 11 - 11) =     19.55377  eV     1   --> A_1  D_1  S_1  
     e( 12 - 12) =     20.16709  eV     1   --> B_1  D_3  S_3  
     e( 13 - 13) =     21.36602  eV     1   --> B_2  D_4  S_4  
     e( 14 - 14) =     25.18061  eV     1   --> A_1  D_1  S_1  
     e( 15 - 15) =     25.41257  eV     1   --> B_2  D_4  S_4  
     e( 16 - 16) =     28.36123  eV     1   --> A_1  D_1  S_1  
     e( 17 - 17) =     28.73923  eV     1   --> A_1  D_1  S_1  
     e( 18 - 18) =     28.87431  eV     1   --> B_1  D_3  S_3  
     e( 19 - 19) =     37.84620  eV     1   --> A_1  D_1  S_1  
     e( 20 - 20) =     38.27460  eV     1   --> A_2  D_2  S_2  

 **************************************************************************

 **************************************************************************

                    xk=(   0.00000,   0.31754,   0.00000  )

     Band symmetry, C_2v (mm2)  point group:

     e(  1 -  1) =    -42.55678  eV     1   --> A_1  D_1  S_1  
     e(  2 -  2) =    -16.76949  eV     1   --> A_1  D_1  S_1  
     e(  3 -  3) =    -16.70848  eV     1   --> B_2  D_4  S_4  
     e(  4 -  4) =    -16.50015  eV     1   --> B_1  D_3  S_3  
     e(  5 -  5) =      6.00422  eV     1   --> A_1  D_1  S_1  
     e(  6 -  6) =     12.11330  eV     1   --> A_1  D_1  S_1  
     e(  7 -  7) =     14.06602  eV     1   --> B_2  D_4  S_4  
     e(  8 -  8) =     14.88581  eV     1   --> A_1  D_1  S_1  
     e(  9 -  9) =     15.02533  eV     1   --> B_1  D_3  S_3  
     e( 10 - 10) =     18.88513  eV     1   --> A_2  D_2  S_2  
     e( 11 - 11) =     19.58473  eV     1   --> A_1  D_1  S_1  
     e( 12 - 12) =     20.17401  eV     1   --> B_1  D_3  S_3  
     e( 13 - 13) =     21.40265  eV     1   --> B_2  D_4  S_4  
     e( 14 - 14) =     25.19934  eV     1   --> A_1  D_1  S_1  
     e( 15 - 15) =     25.43466  eV     1   --> B_2  D_4  S_4  
     e( 16 - 16) =     28.39239  eV     1   --> A_1  D_1  S_1  
     e( 17 - 17) =     28.96021  eV     1   --> A_1  D_1  S_1  
     e( 18 - 18) =     29.20497  eV     1   --> B_1  D_3  S_3  
     e( 19 - 19) =     37.65522  eV     1   --> A_1  D_1  S_1  
     e( 20 - 20) =     38.47748  eV     1   --> A_2  D_2  S_2  

 **************************************************************************

 **************************************************************************

                    xk=(   0.00000,   0.33198,   0.00000  )

     Band symmetry, C_2v (mm2)  point group:

     e(  1 -  1) =    -42.55403  eV     1   --> A_1  D_1  S_1  
     e(  2 -  2) =    -16.79228  eV     1   --> A_1  D_1  S_1  
     e(  3 -  3) =    -16.70456  eV     1   --> B_2  D_4  S_4  
     e(  4 -  4) =    -16.50556  eV     1   --> B_1  D_3  S_3  
     e(  5 -  5) =      6.12849  eV     1   --> A_1  D_1  S_1  
     e(  6 -  6) =     11.93380  eV     1   --> A_1  D_1  S_1  
     e(  7 -  7) =     13.99913  eV     1   --> B_2  D_4  S_4  
     e(  8 -  8) =     14.86316  eV     1   --> A_1  D_1  S_1  
     e(  9 -  9) =     15.02512  eV     1   --> B_1  D_3  S_3  
     e( 10 - 10) =     18.85396  eV     1   --> A_2  D_2  S_2  
     e( 11 - 11) =     19.63550  eV     1   --> A_1  D_1  S_1  
     e( 12 - 12) =     20.18906  eV     1   --> B_1  D_3  S_3  
     e( 13 - 13) =     21.42277  eV     1   --> B_2  D_4  S_4  
     e( 14 - 14) =     25.21515  eV     1   --> A_1  D_1  S_1  
     e( 15 - 15) =     25.47977  eV     1   --> B_2  D_4  S_4  
     e( 16 - 16) =     28.36683  eV     1   --> A_1  D_1  S_1  
     e( 17 - 17) =     29.21986  eV     1   --> A_1  D_1  S_1  
     e( 18 - 18) =     29.53865  eV     1   --> B_1  D_3  S_3  
     e( 19 - 19) =     37.45955  eV     1   --> A_1  D_1  S_1  
     e( 20 - 20) =     38.67576  eV     1   --> B_1  D_3  S_3  

 **************************************************************************

 **************************************************************************

                    xk=(   0.00000,   0.34641,   0.00000  )

     Band symmetry, C_2v (mm2)  point group:

     e(  1 -  1) =    -42.55133  eV     1   --> A_1  D_1  S_1  
     e(  2 -  2) =    -16.81459  eV     1   --> A_1  D_1  S_1  
     e(  3 -  3) =    -16.70071  eV     1   --> B_2  D_4  S_4  
     e(  4 -  4) =    -16.51085  eV     1   --> B_1  D_3  S_3  
     e(  5 -  5) =      6.25674  eV     1   --> A_1  D_1  S_1  
     e(  6 -  6) =     11.75315  eV     1   --> A_1  D_1  S_1  
     e(  7 -  7) =     13.93548  eV     1   --> B_2  D_4  S_4  
     e(  8 -  8) =     14.83375  eV     1   --> A_1  D_1  S_1  
     e(  9 -  9) =     15.02282  eV     1   --> B_1  D_3  S_3  
     e( 10 - 10) =     18.82362  eV     1   --> A_2  D_2  S_2  
     e( 11 - 11) =     19.70487  eV     1   --> A_1  D_1  S_1  
     e( 12 - 12) =     20.21150  eV     1   --> B_1  D_3  S_3  
     e( 13 - 13) =     21.42791  eV     1   --> B_2  D_4  S_4  
     e( 14 - 14) =     25.22841  eV     1   --> A_1  D_1  S_1  
     e( 15 - 15) =     25.54545  eV     1   --> B_2  D_4  S_4  
     e( 16 - 16) =     28.31129  eV     1   --> A_1  D_1  S_1  
     e( 17 - 17) =     29.48945  eV     1   --> A_1  D_1  S_1  
     e( 18 - 18) =     29.87425  eV     1   --> B_1  D_3  S_3  
     e( 19 - 19) =     37.26580  eV     1   --> A_1  D_1  S_1  
     e( 20 - 20) =     38.33473  eV     1   --> B_1  D_3  S_3  

 **************************************************************************

 **************************************************************************

                    xk=(   0.00000,   0.36084,   0.00000  )

     Band symmetry, C_2v (mm2)  point group:

     e(  1 -  1) =    -42.54869  eV     1   --> A_1  D_1  S_1  
     e(  2 -  2) =    -16.83626  eV     1   --> A_1  D_1  S_1  
     e(  3 -  3) =    -16.69695  eV     1   --> B_2  D_4  S_4  
     e(  4 -  4) =    -16.51601  eV     1   --> B_1  D_3  S_3  
     e(  5 -  5) =      6.38884  eV     1   --> A_1  D_1  S_1  
     e(  6 -  6) =     11.57162  eV     1   --> A_1  D_1  S_1  
     e(  7 -  7) =     13.87547  eV     1   --> B_2  D_4  S_4  
     e(  8 -  8) =     14.79878  eV     1   --> A_1  D_1  S_1  
     e(  9 -  9) =     15.01873  eV     1   --> B_1  D_3  S_3  
     e( 10 - 10) =     18.79427  eV     1   --> A_2  D_2  S_2  
     e( 11 - 11) =     19.79170  eV     1   --> A_1  D_1  S_1  
     e( 12 - 12) =     20.24049  eV     1   --> B_1  D_3  S_3  
     e( 13 - 13) =     21.41995  eV     1   --> B_2  D_4  S_4  
     e( 14 - 14) =     25.23933  eV     1   --> A_1  D_1  S_1  
     e( 15 - 15) =     25.63093  eV     1   --> B_2  D_4  S_4  
     e( 16 - 16) =     28.23480  eV     1   --> A_1  D_1  S_1  
     e( 17 - 17) =     29.76345  eV     1   --> A_1  D_1  S_1  
     e( 18 - 18) =     30.21183  eV     1   --> B_1  D_3  S_3  
     e( 19 - 19) =     37.07663  eV     1   --> A_1  D_1  S_1  
     e( 20 - 20) =     38.00747  eV     1   --> B_1  D_3  S_3  

 **************************************************************************

 **************************************************************************

                    xk=(   0.00000,   0.37528,   0.00000  )

     Band symmetry, C_2v (mm2)  point group:

     e(  1 -  1) =    -42.54614  eV     1   --> A_1  D_1  S_1  
     e(  2 -  2) =    -16.85718  eV     1   --> A_1  D_1  S_1  
     e(  3 -  3) =    -16.69331  eV     1   --> B_2  D_4  S_4  
     e(  4 -  4) =    -16.52100  eV     1   --> B_1  D_3  S_3  
     e(  5 -  5) =      6.52455  eV     1   --> A_1  D_1  S_1  
     e(  6 -  6) =     11.38944  eV     1   --> A_1  D_1  S_1  
     e(  7 -  7) =     13.81906  eV     1   --> B_2  D_4  S_4  
     e(  8 -  8) =     14.75940  eV     1   --> A_1  D_1  S_1  
     e(  9 -  9) =     15.01303  eV     1   --> B_1  D_3  S_3  
     e( 10 - 10) =     18.76607  eV     1   --> A_2  D_2  S_2  
     e( 11 - 11) =     19.89406  eV     1   --> A_1  D_1  S_1  
     e( 12 - 12) =     20.27509  eV     1   --> B_1  D_3  S_3  
     e( 13 - 13) =     21.40107  eV     1   --> B_2  D_4  S_4  
     e( 14 - 14) =     25.24804  eV     1   --> A_1  D_1  S_1  
     e( 15 - 15) =     25.73249  eV     1   --> B_2  D_4  S_4  
     e( 16 - 16) =     28.14026  eV     1   --> A_1  D_1  S_1  
     e( 17 - 17) =     30.03619  eV     1   --> A_1  D_1  S_1  
     e( 18 - 18) =     30.55010  eV     1   --> B_1  D_3  S_3  
     e( 19 - 19) =     36.89459  eV     1   --> A_1  D_1  S_1  
     e( 20 - 20) =     37.69463  eV     1   --> B_1  D_3  S_3  

 **************************************************************************

 **************************************************************************

                    xk=(   0.00000,   0.38971,   0.00000  )

     Band symmetry, C_2v (mm2)  point group:

     e(  1 -  1) =    -42.54369  eV     1   --> A_1  D_1  S_1  
     e(  2 -  2) =    -16.87723  eV     1   --> A_1  D_1  S_1  
     e(  3 -  3) =    -16.68981  eV     1   --> B_2  D_4  S_4  
     e(  4 -  4) =    -16.52578  eV     1   --> B_1  D_3  S_3  
     e(  5 -  5) =      6.66364  eV     1   --> A_1  D_1  S_1  
     e(  6 -  6) =     11.20701  eV     1   --> A_1  D_1  S_1  
     e(  7 -  7) =     13.76627  eV     1   --> B_2  D_4  S_4  
     e(  8 -  8) =     14.71689  eV     1   --> A_1  D_1  S_1  
     e(  9 -  9) =     15.00579  eV     1   --> B_1  D_3  S_3  
     e( 10 - 10) =     18.73917  eV     1   --> A_2  D_2  S_2  
     e( 11 - 11) =     20.01007  eV     1   --> A_1  D_1  S_1  
     e( 12 - 12) =     20.31421  eV     1   --> B_1  D_3  S_3  
     e( 13 - 13) =     21.37320  eV     1   --> B_2  D_4  S_4  
     e( 14 - 14) =     25.25471  eV     1   --> A_1  D_1  S_1  
     e( 15 - 15) =     25.84687  eV     1   --> B_2  D_4  S_4  
     e( 16 - 16) =     28.03147  eV     1   --> A_1  D_1  S_1  
     e( 17 - 17) =     30.30502  eV     1   --> A_1  D_1  S_1  
     e( 18 - 18) =     30.88803  eV     1   --> B_1  D_3  S_3  
     e( 19 - 19) =     36.72026  eV     1   --> A_1  D_1  S_1  
     e( 20 - 20) =     37.39720  eV     1   --> B_1  D_3  S_3  

 **************************************************************************

 **************************************************************************

                    xk=(   0.00000,   0.40415,   0.00000  )

     Band symmetry, C_2v (mm2)  point group:

     e(  1 -  1) =    -42.54135  eV     1   --> A_1  D_1  S_1  
     e(  2 -  2) =    -16.89628  eV     1   --> A_1  D_1  S_1  
     e(  3 -  3) =    -16.68647  eV     1   --> B_2  D_4  S_4  
     e(  4 -  4) =    -16.53034  eV     1   --> B_1  D_3  S_3  
     e(  5 -  5) =      6.80588  eV     1   --> A_1  D_1  S_1  
     e(  6 -  6) =     11.02403  eV     1   --> A_1  D_1  S_1  
     e(  7 -  7) =     13.71720  eV     1   --> B_2  D_4  S_4  
     e(  8 -  8) =     14.67249  eV     1   --> A_1  D_1  S_1  
     e(  9 -  9) =     14.99740  eV     1   --> B_1  D_3  S_3  
     e( 10 - 10) =     18.71371  eV     1   --> A_2  D_2  S_2  
     e( 11 - 11) =     20.13728  eV     1   --> A_1  D_1  S_1  
     e( 12 - 12) =     20.35689  eV     1   --> B_1  D_3  S_3  
     e( 13 - 13) =     21.33910  eV     1   --> B_2  D_4  S_4  
     e( 14 - 14) =     25.25874  eV     1   --> A_1  D_1  S_1  
     e( 15 - 15) =     25.96994  eV     1   --> B_2  D_4  S_4  
     e( 16 - 16) =     27.90787  eV     1   --> A_1  D_1  S_1  
     e( 17 - 17) =     30.56764  eV     1   --> A_1  D_1  S_1  
     e( 18 - 18) =     31.22280  eV     1   --> B_1  D_3  S_3  
     e( 19 - 19) =     36.55505  eV     1   --> A_1  D_1  S_1  
     e( 20 - 20) =     37.11591  eV     1   --> B_1  D_3  S_3  

 **************************************************************************

 **************************************************************************

                    xk=(   0.00000,   0.41858,   0.00000  )

     Band symmetry, C_2v (mm2)  point group:

     e(  1 -  1) =    -42.53914  eV     1   --> A_1  D_1  S_1  
     e(  2 -  2) =    -16.91423  eV     1   --> A_1  D_1  S_1  
     e(  3 -  3) =    -16.68331  eV     1   --> B_2  D_4  S_4  
     e(  4 -  4) =    -16.53464  eV     1   --> B_1  D_3  S_3  
     e(  5 -  5) =      6.95125  eV     1   --> A_1  D_1  S_1  
     e(  6 -  6) =     10.84132  eV     1   --> A_1  D_1  S_1  
     e(  7 -  7) =     13.67199  eV     1   --> B_2  D_4  S_4  
     e(  8 -  8) =     14.62741  eV     1   --> A_1  D_1  S_1  
     e(  9 -  9) =     14.98860  eV     1   --> B_1  D_3  S_3  
     e( 10 - 10) =     18.68982  eV     1   --> A_2  D_2  S_2  
     e( 11 - 11) =     20.27355  eV     1   --> A_1  D_1  S_1  
     e( 12 - 12) =     20.40196  eV     1   --> B_1  D_3  S_3  
     e( 13 - 13) =     21.30118  eV     1   --> B_2  D_4  S_4  
     e( 14 - 14) =     25.26103  eV     1   --> A_1  D_1  S_1  
     e( 15 - 15) =     26.10028  eV     1   --> B_2  D_4  S_4  
     e( 16 - 16) =     27.77394  eV     1   --> A_1  D_1  S_1  
     e( 17 - 17) =     30.82412  eV     1   --> A_1  D_1  S_1  
     e( 18 - 18) =     31.55581  eV     1   --> B_1  D_3  S_3  
     e( 19 - 19) =     36.40168  eV     1   --> A_1  D_1  S_1  
     e( 20 - 20) =     36.85224  eV     1   --> B_1  D_3  S_3  

 **************************************************************************

 **************************************************************************

                    xk=(   0.00000,   0.43301,   0.00000  )

     Band symmetry, C_2v (mm2)  point group:

     e(  1 -  1) =    -42.53707  eV     1   --> A_1  D_1  S_1  
     e(  2 -  2) =    -16.93098  eV     1   --> A_1  D_1  S_1  
     e(  3 -  3) =    -16.68036  eV     1   --> B_2  D_4  S_4  
     e(  4 -  4) =    -16.53866  eV     1   --> B_1  D_3  S_3  
     e(  5 -  5) =      7.09937  eV     1   --> A_1  D_1  S_1  
     e(  6 -  6) =     10.65996  eV     1   --> A_1  D_1  S_1  
     e(  7 -  7) =     13.63061  eV     1   --> B_2  D_4  S_4  
     e(  8 -  8) =     14.58282  eV     1   --> A_1  D_1  S_1  
     e(  9 -  9) =     14.97947  eV     1   --> B_1  D_3  S_3  
     e( 10 - 10) =     18.66762  eV     1   --> A_2  D_2  S_2  
     e( 11 - 11) =     20.41663  eV     1   --> A_1  D_1  S_1  
     e( 12 - 12) =     20.44826  eV     1   --> B_1  D_3  S_3  
     e( 13 - 13) =     21.26107  eV     1   --> B_2  D_4  S_4  
     e( 14 - 14) =     25.26133  eV     1   --> A_1  D_1  S_1  
     e( 15 - 15) =     26.23370  eV     1   --> B_2  D_4  S_4  
     e( 16 - 16) =     27.63228  eV     1   --> A_1  D_1  S_1  
     e( 17 - 17) =     31.07203  eV     1   --> A_1  D_1  S_1  
     e( 18 - 18) =     31.88502  eV     1   --> B_1  D_3  S_3  
     e( 19 - 19) =     36.25875  eV     1   --> A_1  D_1  S_1  
     e( 20 - 20) =     36.60755  eV     1   --> B_1  D_3  S_3  

 **************************************************************************

 **************************************************************************

                    xk=(   0.00000,   0.44745,   0.00000  )

     Band symmetry, C_2v (mm2)  point group:

     e(  1 -  1) =    -42.53516  eV     1   --> A_1  D_1  S_1  
     e(  2 -  2) =    -16.94642  eV     1   --> A_1  D_1  S_1  
     e(  3 -  3) =    -16.67763  eV     1   --> B_2  D_4  S_4  
     e(  4 -  4) =    -16.54237  eV     1   --> B_1  D_3  S_3  
     e(  5 -  5) =      7.24965  eV     1   --> A_1  D_1  S_1  
     e(  6 -  6) =     10.47829  eV     1   --> A_1  D_1  S_1  
     e(  7 -  7) =     13.59302  eV     1   --> B_2  D_4  S_4  
     e(  8 -  8) =     14.53964  eV     1   --> A_1  D_1  S_1  
     e(  9 -  9) =     14.97013  eV     1   --> B_1  D_3  S_3  
     e( 10 - 10) =     18.64720  eV     1   --> A_2  D_2  S_2  
     e( 11 - 11) =     20.49460  eV     1   --> B_1  D_3  S_3  
     e( 12 - 12) =     20.56295  eV     1   --> A_1  D_1  S_1  
     e( 13 - 13) =     21.22029  eV     1   --> B_2  D_4  S_4  
     e( 14 - 14) =     25.25941  eV     1   --> A_1  D_1  S_1  
     e( 15 - 15) =     26.36671  eV     1   --> B_2  D_4  S_4  
     e( 16 - 16) =     27.48607  eV     1   --> A_1  D_1  S_1  
     e( 17 - 17) =     31.30865  eV     1   --> A_1  D_1  S_1  
     e( 18 - 18) =     32.20559  eV     1   --> B_1  D_3  S_3  
     e( 19 - 19) =     36.12603  eV     1   --> A_1  D_1  S_1  
     e( 20 - 20) =     36.38172  eV     1   --> B_1  D_3  S_3  

 **************************************************************************

 **************************************************************************

                    xk=(   0.00000,   0.46188,   0.00000  )

     Band symmetry, C_2v (mm2)  point group:

     e(  1 -  1) =    -42.53341  eV     1   --> A_1  D_1  S_1  
     e(  2 -  2) =    -16.96048  eV     1   --> A_1  D_1  S_1  
     e(  3 -  3) =    -16.67514  eV     1   --> B_2  D_4  S_4  
     e(  4 -  4) =    -16.54575  eV     1   --> B_1  D_3  S_3  
     e(  5 -  5) =      7.40233  eV     1   --> A_1  D_1  S_1  
     e(  6 -  6) =     10.29803  eV     1   --> A_1  D_1  S_1  
     e(  7 -  7) =     13.55941  eV     1   --> B_2  D_4  S_4  
     e(  8 -  8) =     14.49887  eV     1   --> A_1  D_1  S_1  
     e(  9 -  9) =     14.96114  eV     1   --> B_1  D_3  S_3  
     e( 10 - 10) =     18.62868  eV     1   --> A_2  D_2  S_2  
     e( 11 - 11) =     20.53990  eV     1   --> B_1  D_3  S_3  
     e( 12 - 12) =     20.70997  eV     1   --> A_1  D_1  S_1  
     e( 13 - 13) =     21.18065  eV     1   --> B_2  D_4  S_4  
     e( 14 - 14) =     25.25567  eV     1   --> A_1  D_1  S_1  
     e( 15 - 15) =     26.49658  eV     1   --> B_2  D_4  S_4  
     e( 16 - 16) =     27.33973  eV     1   --> A_1  D_1  S_1  
     e( 17 - 17) =     31.53264  eV     1   --> A_1  D_1  S_1  
     e( 18 - 18) =     32.51711  eV     1   --> B_1  D_3  S_3  
     e( 19 - 19) =     36.00631  eV     1   --> A_1  D_1  S_1  
     e( 20 - 20) =     36.17654  eV     1   --> B_1  D_3  S_3  

 **************************************************************************

 **************************************************************************

                    xk=(   0.00000,   0.47631,   0.00000  )

     Band symmetry, C_2v (mm2)  point group:

     e(  1 -  1) =    -42.53184  eV     1   --> A_1  D_1  S_1  
     e(  2 -  2) =    -16.97308  eV     1   --> A_1  D_1  S_1  
     e(  3 -  3) =    -16.67291  eV     1   --> B_2  D_4  S_4  
     e(  4 -  4) =    -16.54878  eV     1   --> B_1  D_3  S_3  
     e(  5 -  5) =      7.55646  eV     1   --> A_1  D_1  S_1  
     e(  6 -  6) =     10.11917  eV     1   --> A_1  D_1  S_1  
     e(  7 -  7) =     13.52971  eV     1   --> B_2  D_4  S_4  
     e(  8 -  8) =     14.46117  eV     1   --> A_1  D_1  S_1  
     e(  9 -  9) =     14.95240  eV     1   --> B_1  D_3  S_3  
     e( 10 - 10) =     18.61213  eV     1   --> A_2  D_2  S_2  
     e( 11 - 11) =     20.58293  eV     1   --> B_1  D_3  S_3  
     e( 12 - 12) =     20.85421  eV     1   --> A_1  D_1  S_1  
     e( 13 - 13) =     21.14318  eV     1   --> B_2  D_4  S_4  
     e( 14 - 14) =     25.24968  eV     1   --> A_1  D_1  S_1  
     e( 15 - 15) =     26.62018  eV     1   --> B_2  D_4  S_4  
     e( 16 - 16) =     27.19591  eV     1   --> A_1  D_1  S_1  
     e( 17 - 17) =     31.74099  eV     1   --> A_1  D_1  S_1  
     e( 18 - 18) =     32.81355  eV     1   --> B_1  D_3  S_3  
     e( 19 - 19) =     35.89462  eV     1   --> A_1  D_1  S_1  
     e( 20 - 20) =     35.99246  eV     1   --> B_1  D_3  S_3  

 **************************************************************************

 **************************************************************************

                    xk=(   0.00000,   0.49075,   0.00000  )

     Band symmetry, C_2v (mm2)  point group:

     e(  1 -  1) =    -42.53046  eV     1   --> A_1  D_1  S_1  
     e(  2 -  2) =    -16.98414  eV     1   --> A_1  D_1  S_1  
     e(  3 -  3) =    -16.67094  eV     1   --> B_2  D_4  S_4  
     e(  4 -  4) =    -16.55145  eV     1   --> B_1  D_3  S_3  
     e(  5 -  5) =      7.71138  eV     1   --> A_1  D_1  S_1  
     e(  6 -  6) =      9.94277  eV     1   --> A_1  D_1  S_1  
     e(  7 -  7) =     13.50395  eV     1   --> B_2  D_4  S_4  
     e(  8 -  8) =     14.42726  eV     1   --> A_1  D_1  S_1  
     e(  9 -  9) =     14.94433  eV     1   --> B_1  D_3  S_3  
     e( 10 - 10) =     18.59763  eV     1   --> A_2  D_2  S_2  
     e( 11 - 11) =     20.62268  eV     1   --> B_1  D_3  S_3  
     e( 12 - 12) =     20.99208  eV     1   --> A_1  D_1  S_1  
     e( 13 - 13) =     21.10891  eV     1   --> B_2  D_4  S_4  
     e( 14 - 14) =     25.24177  eV     1   --> A_1  D_1  S_1  
     e( 15 - 15) =     26.73460  eV     1   --> B_2  D_4  S_4  
     e( 16 - 16) =     27.05943  eV     1   --> A_1  D_1  S_1  
     e( 17 - 17) =     31.93148  eV     1   --> A_1  D_1  S_1  
     e( 18 - 18) =     33.09162  eV     1   --> B_1  D_3  S_3  
     e( 19 - 19) =     35.79362  eV     1   --> A_1  D_1  S_1  
     e( 20 - 20) =     35.83064  eV     1   --> B_1  D_3  S_3  

 **************************************************************************

 **************************************************************************

                    xk=(   0.00000,   0.50518,   0.00000  )

     Band symmetry, C_2v (mm2)  point group:

     e(  1 -  1) =    -42.52928  eV     1   --> A_1  D_1  S_1  
     e(  2 -  2) =    -16.99360  eV     1   --> A_1  D_1  S_1  
     e(  3 -  3) =    -16.66925  eV     1   --> B_2  D_4  S_4  
     e(  4 -  4) =    -16.55373  eV     1   --> B_1  D_3  S_3  
     e(  5 -  5) =      7.86592  eV     1   --> A_1  D_1  S_1  
     e(  6 -  6) =      9.77002  eV     1   --> A_1  D_1  S_1  
     e(  7 -  7) =     13.48213  eV     1   --> B_2  D_4  S_4  
     e(  8 -  8) =     14.39769  eV     1   --> A_1  D_1  S_1  
     e(  9 -  9) =     14.93715  eV     1   --> B_1  D_3  S_3  
     e( 10 - 10) =     18.58525  eV     1   --> A_2  D_2  S_2  
     e( 11 - 11) =     20.65816  eV     1   --> B_1  D_3  S_3  
     e( 12 - 12) =     21.07864  eV     1   --> B_2  D_4  S_4  
     e( 13 - 13) =     21.11958  eV     1   --> A_1  D_1  S_1  
     e( 14 - 14) =     25.23228  eV     1   --> A_1  D_1  S_1  
     e( 15 - 15) =     26.83708  eV     1   --> B_2  D_4  S_4  
     e( 16 - 16) =     26.93462  eV     1   --> A_1  D_1  S_1  
     e( 17 - 17) =     32.10122  eV     1   --> A_1  D_1  S_1  
     e( 18 - 18) =     33.34585  eV     1   --> B_1  D_3  S_3  
     e( 19 - 19) =     35.69191  eV     1   --> B_1  D_3  S_3  
     e( 20 - 20) =     35.70401  eV     1   --> A_1  D_1  S_1  

 **************************************************************************

 **************************************************************************

                    xk=(   0.00000,   0.51962,   0.00000  )

     Band symmetry, C_2v (mm2)  point group:

     e(  1 -  1) =    -42.52830  eV     1   --> A_1  D_1  S_1  
     e(  2 -  2) =    -17.00142  eV     1   --> A_1  D_1  S_1  
     e(  3 -  3) =    -16.66786  eV     1   --> B_2  D_4  S_4  
     e(  4 -  4) =    -16.55562  eV     1   --> B_1  D_3  S_3  
     e(  5 -  5) =      8.01808  eV     1   --> A_1  D_1  S_1  
     e(  6 -  6) =      9.60322  eV     1   --> A_1  D_1  S_1  
     e(  7 -  7) =     13.46427  eV     1   --> B_2  D_4  S_4  
     e(  8 -  8) =     14.37292  eV     1   --> A_1  D_1  S_1  
     e(  9 -  9) =     14.93110  eV     1   --> B_1  D_3  S_3  
     e( 10 - 10) =     18.57504  eV     1   --> A_2  D_2  S_2  
     e( 11 - 11) =     20.68851  eV     1   --> B_1  D_3  S_3  
     e( 12 - 12) =     21.05304  eV     1   --> B_2  D_4  S_4  
     e( 13 - 13) =     21.23264  eV     1   --> A_1  D_1  S_1  
     e( 14 - 14) =     25.22191  eV     1   --> A_1  D_1  S_1  
     e( 15 - 15) =     26.82586  eV     1   --> A_1  D_1  S_1  
     e( 16 - 16) =     26.92504  eV     1   --> B_2  D_4  S_4  
     e( 17 - 17) =     32.24776  eV     1   --> A_1  D_1  S_1  
     e( 18 - 18) =     33.57068  eV     1   --> B_1  D_3  S_3  
     e( 19 - 19) =     35.57713  eV     1   --> B_1  D_3  S_3  
     e( 20 - 20) =     35.62696  eV     1   --> A_1  D_1  S_1  

 **************************************************************************

 **************************************************************************

                    xk=(   0.00000,   0.53405,   0.00000  )

     Band symmetry, C_2v (mm2)  point group:

     e(  1 -  1) =    -42.52754  eV     1   --> A_1  D_1  S_1  
     e(  2 -  2) =    -17.00754  eV     1   --> A_1  D_1  S_1  
     e(  3 -  3) =    -16.66676  eV     1   --> B_2  D_4  S_4  
     e(  4 -  4) =    -16.55710  eV     1   --> B_1  D_3  S_3  
     e(  5 -  5) =      8.16393  eV     1   --> A_1  D_1  S_1  
     e(  6 -  6) =      9.44568  eV     1   --> A_1  D_1  S_1  
     e(  7 -  7) =     13.45033  eV     1   --> B_2  D_4  S_4  
     e(  8 -  8) =     14.35328  eV     1   --> A_1  D_1  S_1  
     e(  9 -  9) =     14.92590  eV     1   --> B_1  D_3  S_3  
     e( 10 - 10) =     18.56706  eV     1   --> A_2  D_2  S_2  
     e( 11 - 11) =     20.71287  eV     1   --> B_1  D_3  S_3  
     e( 12 - 12) =     21.03259  eV     1   --> B_2  D_4  S_4  
     e( 13 - 13) =     21.32651  eV     1   --> A_1  D_1  S_1  
     e( 14 - 14) =     25.21129  eV     1   --> A_1  D_1  S_1  
     e( 15 - 15) =     26.73704  eV     1   --> A_1  D_1  S_1  
     e( 16 - 16) =     26.99603  eV     1   --> B_2  D_4  S_4  
     e( 17 - 17) =     32.36603  eV     1   --> A_1  D_1  S_1  
     e( 18 - 18) =     33.75316  eV     1   --> B_1  D_3  S_3  
     e( 19 - 19) =     35.48675  eV     1   --> B_1  D_3  S_3  
     e( 20 - 20) =     35.56710  eV     1   --> A_1  D_1  S_1  

 **************************************************************************

 **************************************************************************

                    xk=(   0.00000,   0.54848,   0.00000  )

     Band symmetry, C_2v (mm2)  point group:

     e(  1 -  1) =    -42.52699  eV     1   --> A_1  D_1  S_1  
     e(  2 -  2) =    -17.01194  eV     1   --> A_1  D_1  S_1  
     e(  3 -  3) =    -16.66598  eV     1   --> B_2  D_4  S_4  
     e(  4 -  4) =    -16.55816  eV     1   --> B_1  D_3  S_3  
     e(  5 -  5) =      8.29586  eV     1   --> A_1  D_1  S_1  
     e(  6 -  6) =      9.30532  eV     1   --> A_1  D_1  S_1  
     e(  7 -  7) =     13.44038  eV     1   --> B_2  D_4  S_4  
     e(  8 -  8) =     14.33906  eV     1   --> A_1  D_1  S_1  
     e(  9 -  9) =     14.92229  eV     1   --> B_1  D_3  S_3  
     e( 10 - 10) =     18.56133  eV     1   --> A_2  D_2  S_2  
     e( 11 - 11) =     20.73078  eV     1   --> B_1  D_3  S_3  
     e( 12 - 12) =     21.01767  eV     1   --> B_2  D_4  S_4  
     e( 13 - 13) =     21.39712  eV     1   --> A_1  D_1  S_1  
     e( 14 - 14) =     25.20237  eV     1   --> A_1  D_1  S_1  
     e( 15 - 15) =     26.67076  eV     1   --> A_1  D_1  S_1  
     e( 16 - 16) =     27.04807  eV     1   --> B_2  D_4  S_4  
     e( 17 - 17) =     32.45302  eV     1   --> A_1  D_1  S_1  
     e( 18 - 18) =     33.89353  eV     1   --> B_1  D_3  S_3  
     e( 19 - 19) =     35.42162  eV     1   --> B_1  D_3  S_3  
     e( 20 - 20) =     35.51961  eV     1   --> A_1  D_1  S_1  

 **************************************************************************

 **************************************************************************

                    xk=(   0.00000,   0.56292,   0.00000  )

     Band symmetry, C_2v (mm2)  point group:

     e(  1 -  1) =    -42.52666  eV     1   --> A_1  D_1  S_1  
     e(  2 -  2) =    -17.01459  eV     1   --> A_1  D_1  S_1  
     e(  3 -  3) =    -16.66550  eV     1   --> B_2  D_4  S_4  
     e(  4 -  4) =    -16.55880  eV     1   --> B_1  D_3  S_3  
     e(  5 -  5) =      8.39686  eV     1   --> A_1  D_1  S_1  
     e(  6 -  6) =      9.19934  eV     1   --> A_1  D_1  S_1  
     e(  7 -  7) =     13.43442  eV     1   --> B_2  D_4  S_4  
     e(  8 -  8) =     14.33046  eV     1   --> A_1  D_1  S_1  
     e(  9 -  9) =     14.92009  eV     1   --> B_1  D_3  S_3  
     e( 10 - 10) =     18.55788  eV     1   --> A_2  D_2  S_2  
     e( 11 - 11) =     20.74171  eV     1   --> B_1  D_3  S_3  
     e( 12 - 12) =     21.00866  eV     1   --> B_2  D_4  S_4  
     e( 13 - 13) =     21.44111  eV     1   --> A_1  D_1  S_1  
     e( 14 - 14) =     25.19627  eV     1   --> A_1  D_1  S_1  
     e( 15 - 15) =     26.63011  eV     1   --> A_1  D_1  S_1  
     e( 16 - 16) =     27.08010  eV     1   --> B_2  D_4  S_4  
     e( 17 - 17) =     32.50704  eV     1   --> A_1  D_1  S_1  
     e( 18 - 18) =     33.98124  eV     1   --> B_1  D_3  S_3  
     e( 19 - 19) =     35.38225  eV     1   --> B_1  D_3  S_3  
     e( 20 - 20) =     35.49046  eV     1   --> A_1  D_1  S_1  

 **************************************************************************

 **************************************************************************

                    xk=(   0.00000,   0.57735,   0.00000  )

     point group D_2h (mmm) 
     there are  8 classes
     the character table:

       E     C2    C2'   C2''  i     s_v   s_v'  s_v''
A_g    1.00  1.00  1.00  1.00  1.00  1.00  1.00  1.00
B_1g   1.00  1.00 -1.00 -1.00  1.00  1.00 -1.00 -1.00
B_2g   1.00 -1.00  1.00 -1.00  1.00 -1.00  1.00 -1.00
B_3g   1.00 -1.00 -1.00  1.00  1.00 -1.00 -1.00  1.00
A_u    1.00  1.00  1.00  1.00 -1.00 -1.00 -1.00 -1.00
B_1u   1.00  1.00 -1.00 -1.00 -1.00 -1.00  1.00  1.00
B_2u   1.00 -1.00  1.00 -1.00 -1.00  1.00 -1.00  1.00
B_3u   1.00 -1.00 -1.00  1.00 -1.00  1.00  1.00 -1.00

     the symmetry operations in each class and the name of the first element:

     E        1
                                                                 
     C2       2
                                                                 
     C2'      4
                                                                 
     C2''     3
                                                                 
     i        5
                                                                 
     s_v      6
                                                                 
     s_v'     8
                                                                 
     s_v''    7
                                                                 

     Band symmetry, D_2h (mmm)  point group:

     e(  1 -  1) =    -42.52655  eV     1   --> A_g            
     e(  2 -  2) =    -17.01547  eV     1   --> B_3u           
     e(  3 -  3) =    -16.66535  eV     1   --> B_1u           
     e(  4 -  4) =    -16.55901  eV     1   --> B_2u           
     e(  5 -  5) =      8.43649  eV     1   --> A_g            
     e(  6 -  6) =      9.15714  eV     1   --> B_3u           
     e(  7 -  7) =     13.43240  eV     1   --> B_2g           
     e(  8 -  8) =     14.32757  eV     1   --> A_g            
     e(  9 -  9) =     14.91934  eV     1   --> B_2u           
     e( 10 - 10) =     18.55673  eV     1   --> B_3g           
     e( 11 - 11) =     20.74538  eV     1   --> B_1g           
     e( 12 - 12) =     21.00552  eV     1   --> B_1u           
     e( 13 - 13) =     21.45579  eV     1   --> A_g            
     e( 14 - 14) =     25.19391  eV     1   --> B_3u           
     e( 15 - 15) =     26.61640  eV     1   --> A_g            
     e( 16 - 16) =     27.09062  eV     1   --> B_2g           
     e( 17 - 17) =     32.52451  eV     1   --> A_g            
     e( 18 - 18) =     34.01094  eV     1   --> B_1g           
     e( 19 - 19) =     35.36901  eV     1   --> B_2u           
     e( 20 - 20) =     35.47996  eV     1   --> B_3u           

 **************************************************************************

 **************************************************************************

                    xk=(   0.01667,   0.57735,   0.00000  )

     point group C_2v (mm2) 
     there are  4 classes
     the character table:

       E     C2    s_v   s_v' 
A_1    1.00  1.00  1.00  1.00
A_2    1.00  1.00 -1.00 -1.00
B_1    1.00 -1.00  1.00 -1.00
B_2    1.00 -1.00 -1.00  1.00

     the symmetry operations in each class and the name of the first element:

     E        1
                                                                 
     C2       2
                                                                 
     s_v      4
                                                                 
     s_v'     3
                                                                 

     Band symmetry, C_2v (mm2)  point group:

     e(  1 -  1) =    -42.52649  eV     1   --> A_1  D_1  S_1  
     e(  2 -  2) =    -17.01496  eV     1   --> B_2  D_4  S_4  
     e(  3 -  3) =    -16.66528  eV     1   --> B_1  D_3  S_3  
     e(  4 -  4) =    -16.56008  eV     1   --> A_1  D_1  S_1  
     e(  5 -  5) =      8.44187  eV     1   --> A_1  D_1  S_1  
     e(  6 -  6) =      9.15963  eV     1   --> B_2  D_4  S_4  
     e(  7 -  7) =     13.43618  eV     1   --> A_2  D_2  S_2  
     e(  8 -  8) =     14.26739  eV     1   --> A_1  D_1  S_1  
     e(  9 -  9) =     14.97712  eV     1   --> A_1  D_1  S_1  
     e( 10 - 10) =     18.51832  eV     1   --> B_1  D_3  S_3  
     e( 11 - 11) =     20.73109  eV     1   --> B_2  D_4  S_4  
     e( 12 - 12) =     21.05029  eV     1   --> B_1  D_3  S_3  
     e( 13 - 13) =     21.45047  eV     1   --> A_1  D_1  S_1  
     e( 14 - 14) =     25.21513  eV     1   --> B_2  D_4  S_4  
     e( 15 - 15) =     26.63167  eV     1   --> A_1  D_1  S_1  
     e( 16 - 16) =     27.08759  eV     1   --> A_2  D_2  S_2  
     e( 17 - 17) =     32.51381  eV     1   --> A_1  D_1  S_1  
     e( 18 - 18) =     34.00135  eV     1   --> B_2  D_4  S_4  
     e( 19 - 19) =     35.36570  eV     1   --> A_1  D_1  S_1  
     e( 20 - 20) =     35.49375  eV     1   --> B_2  D_4  S_4  

 **************************************************************************

 **************************************************************************

                    xk=(   0.03333,   0.57735,   0.00000  )

     Band symmetry, C_2v (mm2)  point group:

     e(  1 -  1) =    -42.52634  eV     1   --> A_1  D_1  S_1  
     e(  2 -  2) =    -17.01342  eV     1   --> B_2  D_4  S_4  
     e(  3 -  3) =    -16.66507  eV     1   --> B_1  D_3  S_3  
     e(  4 -  4) =    -16.56327  eV     1   --> A_1  D_1  S_1  
     e(  5 -  5) =      8.45639  eV     1   --> A_1  D_1  S_1  
     e(  6 -  6) =      9.16516  eV     1   --> B_2  D_4  S_4  
     e(  7 -  7) =     13.44745  eV     1   --> A_2  D_2  S_2  
     e(  8 -  8) =     14.12717  eV     1   --> A_1  D_1  S_1  
     e(  9 -  9) =     15.10991  eV     1   --> A_1  D_1  S_1  
     e( 10 - 10) =     18.41076  eV     1   --> B_1  D_3  S_3  
     e( 11 - 11) =     20.68905  eV     1   --> B_2  D_4  S_4  
     e( 12 - 12) =     21.17721  eV     1   --> B_1  D_3  S_3  
     e( 13 - 13) =     21.43356  eV     1   --> A_1  D_1  S_1  
     e( 14 - 14) =     25.27701  eV     1   --> B_2  D_4  S_4  
     e( 15 - 15) =     26.67725  eV     1   --> A_1  D_1  S_1  
     e( 16 - 16) =     27.07775  eV     1   --> A_2  D_2  S_2  
     e( 17 - 17) =     32.47912  eV     1   --> A_1  D_1  S_1  
     e( 18 - 18) =     33.96384  eV     1   --> B_2  D_4  S_4  
     e( 19 - 19) =     35.35518  eV     1   --> A_1  D_1  S_1  
     e( 20 - 20) =     35.53206  eV     1   --> B_2  D_4  S_4  

 **************************************************************************

 **************************************************************************

                    xk=(   0.05000,   0.57735,   0.00000  )

     Band symmetry, C_2v (mm2)  point group:

     e(  1 -  1) =    -42.52610  eV     1   --> A_1  D_1  S_1  
     e(  2 -  2) =    -17.01086  eV     1   --> B_2  D_4  S_4  
     e(  3 -  3) =    -16.66473  eV     1   --> B_1  D_3  S_3  
     e(  4 -  4) =    -16.56855  eV     1   --> A_1  D_1  S_1  
     e(  5 -  5) =      8.48041  eV     1   --> A_1  D_1  S_1  
     e(  6 -  6) =      9.17401  eV     1   --> B_2  D_4  S_4  
     e(  7 -  7) =     13.46601  eV     1   --> A_2  D_2  S_2  
     e(  8 -  8) =     13.95216  eV     1   --> A_1  D_1  S_1  
     e(  9 -  9) =     15.27187  eV     1   --> A_1  D_1  S_1  
     e( 10 - 10) =     18.25137  eV     1   --> B_1  D_3  S_3  
     e( 11 - 11) =     20.62172  eV     1   --> B_2  D_4  S_4  
     e( 12 - 12) =     21.36675  eV     1   --> B_1  D_3  S_3  
     e( 13 - 13) =     21.40535  eV     1   --> A_1  D_1  S_1  
     e( 14 - 14) =     25.37731  eV     1   --> B_2  D_4  S_4  
     e( 15 - 15) =     26.75228  eV     1   --> A_1  D_1  S_1  
     e( 16 - 16) =     27.06035  eV     1   --> A_2  D_2  S_2  
     e( 17 - 17) =     32.42270  eV     1   --> A_1  D_1  S_1  
     e( 18 - 18) =     33.90063  eV     1   --> B_2  D_4  S_4  
     e( 19 - 19) =     35.33498  eV     1   --> A_1  D_1  S_1  
     e( 20 - 20) =     35.59147  eV     1   --> B_2  D_4  S_4  

 **************************************************************************

 **************************************************************************

                    xk=(   0.06667,   0.57735,   0.00000  )

     Band symmetry, C_2v (mm2)  point group:

     e(  1 -  1) =    -42.52577  eV     1   --> A_1  D_1  S_1  
     e(  2 -  2) =    -17.00730  eV     1   --> B_2  D_4  S_4  
     e(  3 -  3) =    -16.66426  eV     1   --> B_1  D_3  S_3  
     e(  4 -  4) =    -16.57585  eV     1   --> A_1  D_1  S_1  
     e(  5 -  5) =      8.51390  eV     1   --> A_1  D_1  S_1  
     e(  6 -  6) =      9.18629  eV     1   --> B_2  D_4  S_4  
     e(  7 -  7) =     13.49197  eV     1   --> A_2  D_2  S_2  
     e(  8 -  8) =     13.76052  eV     1   --> A_1  D_1  S_1  
     e(  9 -  9) =     15.44598  eV     1   --> A_1  D_1  S_1  
     e( 10 - 10) =     18.05791  eV     1   --> B_1  D_3  S_3  
     e( 11 - 11) =     20.53267  eV     1   --> B_2  D_4  S_4  
     e( 12 - 12) =     21.36587  eV     1   --> A_1  D_1  S_1  
     e( 13 - 13) =     21.60209  eV     1   --> B_1  D_3  S_3  
     e( 14 - 14) =     25.51239  eV     1   --> B_2  D_4  S_4  
     e( 15 - 15) =     26.85627  eV     1   --> A_1  D_1  S_1  
     e( 16 - 16) =     27.03616  eV     1   --> A_2  D_2  S_2  
     e( 17 - 17) =     32.34633  eV     1   --> A_1  D_1  S_1  
     e( 18 - 18) =     33.81817  eV     1   --> B_2  D_4  S_4  
     e( 19 - 19) =     35.30282  eV     1   --> A_1  D_1  S_1  
     e( 20 - 20) =     35.57684  eV     1   --> B_1  D_3  S_3  

 **************************************************************************

 **************************************************************************

                    xk=(   0.08333,   0.57735,   0.00000  )

     Band symmetry, C_2v (mm2)  point group:

     e(  1 -  1) =    -42.52536  eV     1   --> A_1  D_1  S_1  
     e(  2 -  2) =    -17.00274  eV     1   --> B_2  D_4  S_4  
     e(  3 -  3) =    -16.66368  eV     1   --> B_1  D_3  S_3  
     e(  4 -  4) =    -16.58508  eV     1   --> A_1  D_1  S_1  
     e(  5 -  5) =      8.55673  eV     1   --> A_1  D_1  S_1  
     e(  6 -  6) =      9.20229  eV     1   --> B_2  D_4  S_4  
     e(  7 -  7) =     13.52531  eV     1   --> A_2  D_2  S_2  
     e(  8 -  8) =     13.55878  eV     1   --> A_1  D_1  S_1  
     e(  9 -  9) =     15.62675  eV     1   --> A_1  D_1  S_1  
     e( 10 - 10) =     17.84402  eV     1   --> B_1  D_3  S_3  
     e( 11 - 11) =     20.42599  eV     1   --> B_2  D_4  S_4  
     e( 12 - 12) =     21.31518  eV     1   --> A_1  D_1  S_1  
     e( 13 - 13) =     21.86920  eV     1   --> B_1  D_3  S_3  
     e( 14 - 14) =     25.67806  eV     1   --> B_2  D_4  S_4  
     e( 15 - 15) =     26.98891  eV     1   --> A_1  D_1  S_1  
     e( 16 - 16) =     27.00531  eV     1   --> A_2  D_2  S_2  
     e( 17 - 17) =     32.25243  eV     1   --> A_1  D_1  S_1  
     e( 18 - 18) =     33.72301  eV     1   --> B_2  D_4  S_4  
     e( 19 - 19) =     35.25524  eV     1   --> A_1  D_1  S_1  
     e( 20 - 20) =     35.32374  eV     1   --> B_1  D_3  S_3  

 **************************************************************************

 **************************************************************************

                    xk=(   0.10000,   0.57735,   0.00000  )

     Band symmetry, C_2v (mm2)  point group:

     e(  1 -  1) =    -42.52487  eV     1   --> A_1  D_1  S_1  
     e(  2 -  2) =    -16.99721  eV     1   --> B_2  D_4  S_4  
     e(  3 -  3) =    -16.66299  eV     1   --> B_1  D_3  S_3  
     e(  4 -  4) =    -16.59611  eV     1   --> A_1  D_1  S_1  
     e(  5 -  5) =      8.60863  eV     1   --> A_1  D_1  S_1  
     e(  6 -  6) =      9.22169  eV     1   --> B_2  D_4  S_4  
     e(  7 -  7) =     13.34972  eV     1   --> A_1  D_1  S_1  
     e(  8 -  8) =     13.56601  eV     1   --> A_2  D_2  S_2  
     e(  9 -  9) =     15.81215  eV     1   --> A_1  D_1  S_1  
     e( 10 - 10) =     17.61905  eV     1   --> B_1  D_3  S_3  
     e( 11 - 11) =     20.30567  eV     1   --> B_2  D_4  S_4  
     e( 12 - 12) =     21.25322  eV     1   --> A_1  D_1  S_1  
     e( 13 - 13) =     22.15821  eV     1   --> B_1  D_3  S_3  
     e( 14 - 14) =     25.86977  eV     1   --> B_2  D_4  S_4  
     e( 15 - 15) =     26.96798  eV     1   --> A_2  D_2  S_2  
     e( 16 - 16) =     27.14882  eV     1   --> A_1  D_1  S_1  
     e( 17 - 17) =     32.14246  eV     1   --> A_1  D_1  S_1  
     e( 18 - 18) =     33.61689  eV     1   --> B_2  D_4  S_4  
     e( 19 - 19) =     35.04547  eV     1   --> B_1  D_3  S_3  
     e( 20 - 20) =     35.18828  eV     1   --> A_1  D_1  S_1  

 **************************************************************************

 **************************************************************************

                    xk=(   0.11667,   0.57735,   0.00000  )

     Band symmetry, C_2v (mm2)  point group:

     e(  1 -  1) =    -42.52432  eV     1   --> A_1  D_1  S_1  
     e(  2 -  2) =    -16.99073  eV     1   --> B_2  D_4  S_4  
     e(  3 -  3) =    -16.66220  eV     1   --> B_1  D_3  S_3  
     e(  4 -  4) =    -16.60881  eV     1   --> A_1  D_1  S_1  
     e(  5 -  5) =      8.66957  eV     1   --> A_1  D_1  S_1  
     e(  6 -  6) =      9.24487  eV     1   --> B_2  D_4  S_4  
     e(  7 -  7) =     13.13490  eV     1   --> A_1  D_1  S_1  
     e(  8 -  8) =     13.61402  eV     1   --> A_2  D_2  S_2  
     e(  9 -  9) =     16.00173  eV     1   --> A_1  D_1  S_1  
     e( 10 - 10) =     17.38918  eV     1   --> B_1  D_3  S_3  
[...]
     e( 10 - 10) =     17.88227  eV     1   --> A_1  D_1  S_1  
     e( 11 - 11) =     18.83677  eV     1   --> A_1  D_1  S_1  
     e( 12 - 12) =     19.50721  eV     1   --> A_2  D_2  S_2  
     e( 13 - 13) =     19.93449  eV     1   --> B_2  D_4  S_4  
     e( 14 - 14) =     25.53486  eV     1   --> B_1  D_3  S_3  
     e( 15 - 15) =     28.22946  eV     1   --> B_2  D_4  S_4  
     e( 16 - 16) =     28.25125  eV     1   --> A_2  D_2  S_2  
     e( 17 - 17) =     30.26888  eV     1   --> A_2  D_2  S_2  
     e( 18 - 18) =     32.75387  eV     1   --> B_2  D_4  S_4  
     e( 19 - 19) =     32.80970  eV     1   --> A_1  D_1  S_1  
     e( 20 - 20) =     36.06512  eV     1   --> A_1  D_1  S_1  

 **************************************************************************

 **************************************************************************

                    xk=(   0.08333,   0.14434,   0.45391  )

     Band symmetry, C_2v (mm2)  point group:

     e(  1 -  1) =    -42.57246  eV     1   --> A_1  D_1  S_1  
     e(  2 -  2) =    -16.95454  eV     1   --> B_2  D_4  S_4  
     e(  3 -  3) =    -16.51523  eV     1   --> A_1  D_1  S_1  
     e(  4 -  4) =    -16.43029  eV     1   --> B_1  D_3  S_3  
     e(  5 -  5) =      6.81543  eV     1   --> B_2  D_4  S_4  
     e(  6 -  6) =     10.78558  eV     1   --> A_1  D_1  S_1  
     e(  7 -  7) =     14.81833  eV     1   --> A_2  D_2  S_2  
     e(  8 -  8) =     15.11601  eV     1   --> B_2  D_4  S_4  
     e(  9 -  9) =     16.38904  eV     1   --> B_1  D_3  S_3  
     e( 10 - 10) =     17.77535  eV     1   --> A_1  D_1  S_1  
     e( 11 - 11) =     18.78534  eV     1   --> A_1  D_1  S_1  
     e( 12 - 12) =     19.33328  eV     1   --> A_2  D_2  S_2  
     e( 13 - 13) =     19.69493  eV     1   --> B_2  D_4  S_4  
     e( 14 - 14) =     25.36959  eV     1   --> B_1  D_3  S_3  
     e( 15 - 15) =     28.20917  eV     1   --> A_2  D_2  S_2  
     e( 16 - 16) =     28.38035  eV     1   --> B_2  D_4  S_4  
     e( 17 - 17) =     30.11774  eV     1   --> A_2  D_2  S_2  
     e( 18 - 18) =     32.47451  eV     1   --> B_2  D_4  S_4  
     e( 19 - 19) =     33.00968  eV     1   --> A_1  D_1  S_1  
     e( 20 - 20) =     36.40560  eV     1   --> A_1  D_1  S_1  

 **************************************************************************

 **************************************************************************

                    xk=(   0.07500,   0.12990,   0.45391  )

     Band symmetry, C_2v (mm2)  point group:

     e(  1 -  1) =    -42.57490  eV     1   --> A_1  D_1  S_1  
     e(  2 -  2) =    -16.95888  eV     1   --> B_2  D_4  S_4  
     e(  3 -  3) =    -16.49538  eV     1   --> A_1  D_1  S_1  
     e(  4 -  4) =    -16.42488  eV     1   --> B_1  D_3  S_3  
     e(  5 -  5) =      6.79282  eV     1   --> B_2  D_4  S_4  
     e(  6 -  6) =     10.67615  eV     1   --> A_1  D_1  S_1  
     e(  7 -  7) =     15.06671  eV     1   --> A_2  D_2  S_2  
     e(  8 -  8) =     15.30663  eV     1   --> B_2  D_4  S_4  
     e(  9 -  9) =     16.52413  eV     1   --> B_1  D_3  S_3  
     e( 10 - 10) =     17.67734  eV     1   --> A_1  D_1  S_1  
     e( 11 - 11) =     18.73894  eV     1   --> A_1  D_1  S_1  
     e( 12 - 12) =     19.15404  eV     1   --> A_2  D_2  S_2  
     e( 13 - 13) =     19.45393  eV     1   --> B_2  D_4  S_4  
     e( 14 - 14) =     25.20250  eV     1   --> B_1  D_3  S_3  
     e( 15 - 15) =     28.15545  eV     1   --> A_2  D_2  S_2  
     e( 16 - 16) =     28.53157  eV     1   --> B_2  D_4  S_4  
     e( 17 - 17) =     29.99431  eV     1   --> A_2  D_2  S_2  
     e( 18 - 18) =     32.20746  eV     1   --> B_2  D_4  S_4  
     e( 19 - 19) =     33.18783  eV     1   --> A_1  D_1  S_1  
     e( 20 - 20) =     36.75704  eV     1   --> A_1  D_1  S_1  

 **************************************************************************

 **************************************************************************

                    xk=(   0.06667,   0.11547,   0.45391  )

     Band symmetry, C_2v (mm2)  point group:

     e(  1 -  1) =    -42.57713  eV     1   --> A_1  D_1  S_1  
     e(  2 -  2) =    -16.96286  eV     1   --> B_2  D_4  S_4  
     e(  3 -  3) =    -16.47697  eV     1   --> A_1  D_1  S_1  
     e(  4 -  4) =    -16.42005  eV     1   --> B_1  D_3  S_3  
     e(  5 -  5) =      6.77291  eV     1   --> B_2  D_4  S_4  
     e(  6 -  6) =     10.57675  eV     1   --> A_1  D_1  S_1  
     e(  7 -  7) =     15.31524  eV     1   --> A_2  D_2  S_2  
     e(  8 -  8) =     15.50329  eV     1   --> B_2  D_4  S_4  
     e(  9 -  9) =     16.65428  eV     1   --> B_1  D_3  S_3  
     e( 10 - 10) =     17.58869  eV     1   --> A_1  D_1  S_1  
     e( 11 - 11) =     18.69742  eV     1   --> A_1  D_1  S_1  
     e( 12 - 12) =     18.96937  eV     1   --> A_2  D_2  S_2  
     e( 13 - 13) =     19.21208  eV     1   --> B_2  D_4  S_4  
     e( 14 - 14) =     25.03783  eV     1   --> B_1  D_3  S_3  
     e( 15 - 15) =     28.09251  eV     1   --> A_2  D_2  S_2  
     e( 16 - 16) =     28.68541  eV     1   --> B_2  D_4  S_4  
     e( 17 - 17) =     29.89717  eV     1   --> A_2  D_2  S_2  
     e( 18 - 18) =     31.95451  eV     1   --> B_2  D_4  S_4  
     e( 19 - 19) =     33.34457  eV     1   --> A_1  D_1  S_1  
     e( 20 - 20) =     37.11535  eV     1   --> A_1  D_1  S_1  

 **************************************************************************

 **************************************************************************

                    xk=(   0.05833,   0.10104,   0.45391  )

     Band symmetry, C_2v (mm2)  point group:

     e(  1 -  1) =    -42.57913  eV     1   --> A_1  D_1  S_1  
     e(  2 -  2) =    -16.96644  eV     1   --> B_2  D_4  S_4  
     e(  3 -  3) =    -16.46022  eV     1   --> A_1  D_1  S_1  
     e(  4 -  4) =    -16.41580  eV     1   --> B_1  D_3  S_3  
     e(  5 -  5) =      6.75564  eV     1   --> B_2  D_4  S_4  
     e(  6 -  6) =     10.48806  eV     1   --> A_1  D_1  S_1  
     e(  7 -  7) =     15.56365  eV     1   --> A_2  D_2  S_2  
     e(  8 -  8) =     15.70597  eV     1   --> B_2  D_4  S_4  
     e(  9 -  9) =     16.77746  eV     1   --> B_1  D_3  S_3  
     e( 10 - 10) =     17.50979  eV     1   --> A_1  D_1  S_1  
     e( 11 - 11) =     18.66078  eV     1   --> A_1  D_1  S_1  
     e( 12 - 12) =     18.77932  eV     1   --> A_2  D_2  S_2  
     e( 13 - 13) =     18.97023  eV     1   --> B_2  D_4  S_4  
     e( 14 - 14) =     24.88144  eV     1   --> B_1  D_3  S_3  
     e( 15 - 15) =     28.02603  eV     1   --> A_2  D_2  S_2  
     e( 16 - 16) =     28.83939  eV     1   --> B_2  D_4  S_4  
     e( 17 - 17) =     29.82333  eV     1   --> A_2  D_2  S_2  
     e( 18 - 18) =     31.71500  eV     1   --> B_2  D_4  S_4  
     e( 19 - 19) =     33.48185  eV     1   --> A_1  D_1  S_1  
     e( 20 - 20) =     37.47709  eV     1   --> A_1  D_1  S_1  

 **************************************************************************

 **************************************************************************

                    xk=(   0.05000,   0.08660,   0.45391  )

     Band symmetry, C_2v (mm2)  point group:

     e(  1 -  1) =    -42.58090  eV     1   --> A_1  D_1  S_1  
     e(  2 -  2) =    -16.96961  eV     1   --> B_2  D_4  S_4  
     e(  3 -  3) =    -16.44529  eV     1   --> A_1  D_1  S_1  
     e(  4 -  4) =    -16.41212  eV     1   --> B_1  D_3  S_3  
     e(  5 -  5) =      6.74056  eV     1   --> B_2  D_4  S_4  
     e(  6 -  6) =     10.41013  eV     1   --> A_1  D_1  S_1  
     e(  7 -  7) =     15.81072  eV     1   --> A_2  D_2  S_2  
     e(  8 -  8) =     15.91320  eV     1   --> B_2  D_4  S_4  
     e(  9 -  9) =     16.89120  eV     1   --> B_1  D_3  S_3  
     e( 10 - 10) =     17.44091  eV     1   --> A_1  D_1  S_1  
     e( 11 - 11) =     18.58377  eV     1   --> A_2  D_2  S_2  
     e( 12 - 12) =     18.62893  eV     1   --> A_1  D_1  S_1  
     e( 13 - 13) =     18.72812  eV     1   --> B_2  D_4  S_4  
     e( 14 - 14) =     24.73385  eV     1   --> B_1  D_3  S_3  
     e( 15 - 15) =     27.95605  eV     1   --> A_2  D_2  S_2  
     e( 16 - 16) =     28.99222  eV     1   --> B_2  D_4  S_4  
     e( 17 - 17) =     29.76845  eV     1   --> A_2  D_2  S_2  
     e( 18 - 18) =     31.48935  eV     1   --> B_2  D_4  S_4  
     e( 19 - 19) =     33.59866  eV     1   --> A_1  D_1  S_1  
     e( 20 - 20) =     37.83876  eV     1   --> A_1  D_1  S_1  

 **************************************************************************

 **************************************************************************

                    xk=(   0.04167,   0.07217,   0.45391  )

     Band symmetry, C_2v (mm2)  point group:

     e(  1 -  1) =    -42.58243  eV     1   --> A_1  D_1  S_1  
     e(  2 -  2) =    -16.97233  eV     1   --> B_2  D_4  S_4  
     e(  3 -  3) =    -16.43237  eV     1   --> A_1  D_1  S_1  
     e(  4 -  4) =    -16.40901  eV     1   --> B_1  D_3  S_3  
     e(  5 -  5) =      6.72786  eV     1   --> B_2  D_4  S_4  
     e(  6 -  6) =     10.34351  eV     1   --> A_1  D_1  S_1  
     e(  7 -  7) =     16.05598  eV     1   --> A_2  D_2  S_2  
     e(  8 -  8) =     16.12491  eV     1   --> B_2  D_4  S_4  
     e(  9 -  9) =     16.99319  eV     1   --> B_1  D_3  S_3  
     e( 10 - 10) =     17.38229  eV     1   --> A_1  D_1  S_1  
     e( 11 - 11) =     18.38304  eV     1   --> A_2  D_2  S_2  
     e( 12 - 12) =     18.48682  eV     1   --> B_2  D_4  S_4  
     e( 13 - 13) =     18.60194  eV     1   --> A_1  D_1  S_1  
     e( 14 - 14) =     24.60077  eV     1   --> B_1  D_3  S_3  
     e( 15 - 15) =     27.88912  eV     1   --> A_2  D_2  S_2  
     e( 16 - 16) =     29.14258  eV     1   --> B_2  D_4  S_4  
     e( 17 - 17) =     29.72893  eV     1   --> A_2  D_2  S_2  
     e( 18 - 18) =     31.27846  eV     1   --> B_2  D_4  S_4  
     e( 19 - 19) =     33.69660  eV     1   --> A_1  D_1  S_1  
     e( 20 - 20) =     38.19636  eV     1   --> A_1  D_1  S_1  

 **************************************************************************

 **************************************************************************

                    xk=(   0.03333,   0.05774,   0.45391  )

     Band symmetry, C_2v (mm2)  point group:

     e(  1 -  1) =    -42.58369  eV     1   --> A_1  D_1  S_1  
     e(  2 -  2) =    -16.97459  eV     1   --> B_2  D_4  S_4  
     e(  3 -  3) =    -16.42159  eV     1   --> A_1  D_1  S_1  
     e(  4 -  4) =    -16.40647  eV     1   --> B_1  D_3  S_3  
     e(  5 -  5) =      6.71757  eV     1   --> B_2  D_4  S_4  
     e(  6 -  6) =     10.28856  eV     1   --> A_1  D_1  S_1  
     e(  7 -  7) =     16.29884  eV     1   --> A_2  D_2  S_2  
     e(  8 -  8) =     16.34041  eV     1   --> B_2  D_4  S_4  
     e(  9 -  9) =     17.08099  eV     1   --> B_1  D_3  S_3  
     e( 10 - 10) =     17.33411  eV     1   --> A_1  D_1  S_1  
     e( 11 - 11) =     18.17817  eV     1   --> A_2  D_2  S_2  
     e( 12 - 12) =     18.24722  eV     1   --> B_2  D_4  S_4  
     e( 13 - 13) =     18.57982  eV     1   --> A_1  D_1  S_1  
     e( 14 - 14) =     24.48625  eV     1   --> B_1  D_3  S_3  
     e( 15 - 15) =     27.83021  eV     1   --> A_2  D_2  S_2  
     e( 16 - 16) =     29.28852  eV     1   --> B_2  D_4  S_4  
     e( 17 - 17) =     29.70129  eV     1   --> A_2  D_2  S_2  
     e( 18 - 18) =     31.08429  eV     1   --> B_2  D_4  S_4  
     e( 19 - 19) =     33.77651  eV     1   --> A_1  D_1  S_1  
     e( 20 - 20) =     38.54451  eV     1   --> A_1  D_1  S_1  

 **************************************************************************

 **************************************************************************

                    xk=(   0.02500,   0.04330,   0.45391  )

     Band symmetry, C_2v (mm2)  point group:

     e(  1 -  1) =    -42.58469  eV     1   --> A_1  D_1  S_1  
     e(  2 -  2) =    -16.97636  eV     1   --> B_2  D_4  S_4  
     e(  3 -  3) =    -16.41308  eV     1   --> A_1  D_1  S_1  
     e(  4 -  4) =    -16.40450  eV     1   --> B_1  D_3  S_3  
     e(  5 -  5) =      6.70955  eV     1   --> B_2  D_4  S_4  
     e(  6 -  6) =     10.24553  eV     1   --> A_1  D_1  S_1  
     e(  7 -  7) =     16.53682  eV     1   --> A_2  D_2  S_2  
     e(  8 -  8) =     16.55794  eV     1   --> B_2  D_4  S_4  
     e(  9 -  9) =     17.15223  eV     1   --> B_1  D_3  S_3  
     e( 10 - 10) =     17.29650  eV     1   --> A_1  D_1  S_1  
     e( 11 - 11) =     17.96945  eV     1   --> A_2  D_2  S_2  
     e( 12 - 12) =     18.01080  eV     1   --> B_2  D_4  S_4  
     e( 13 - 13) =     18.56258  eV     1   --> A_1  D_1  S_1  
     e( 14 - 14) =     24.39291  eV     1   --> B_1  D_3  S_3  
     e( 15 - 15) =     27.78021  eV     1   --> A_2  D_2  S_2  
     e( 16 - 16) =     29.42486  eV     1   --> B_2  D_4  S_4  
     e( 17 - 17) =     29.68264  eV     1   --> A_2  D_2  S_2  
     e( 18 - 18) =     30.91057  eV     1   --> B_2  D_4  S_4  
     e( 19 - 19) =     33.83811  eV     1   --> A_1  D_1  S_1  
     e( 20 - 20) =     38.87396  eV     1   --> A_1  D_1  S_1  

 **************************************************************************

 **************************************************************************

                    xk=(   0.01667,   0.02887,   0.45391  )

     Band symmetry, C_2v (mm2)  point group:

     e(  1 -  1) =    -42.58540  eV     1   --> A_1  D_1  S_1  
     e(  2 -  2) =    -16.97764  eV     1   --> B_2  D_4  S_4  
     e(  3 -  3) =    -16.40693  eV     1   --> A_1  D_1  S_1  
     e(  4 -  4) =    -16.40309  eV     1   --> B_1  D_3  S_3  
     e(  5 -  5) =      6.70416  eV     1   --> B_2  D_4  S_4  
     e(  6 -  6) =     10.21464  eV     1   --> A_1  D_1  S_1  
     e(  7 -  7) =     16.76702  eV     1   --> A_2  D_2  S_2  
     e(  8 -  8) =     16.77426  eV     1   --> B_2  D_4  S_4  
     e(  9 -  9) =     17.20482  eV     1   --> B_1  D_3  S_3  
     e( 10 - 10) =     17.26958  eV     1   --> A_1  D_1  S_1  
     e( 11 - 11) =     17.76065  eV     1   --> A_2  D_2  S_2  
     e( 12 - 12) =     17.78098  eV     1   --> B_2  D_4  S_4  
     e( 13 - 13) =     18.55026  eV     1   --> A_1  D_1  S_1  
     e( 14 - 14) =     24.32404  eV     1   --> B_1  D_3  S_3  
     e( 15 - 15) =     27.74283  eV     1   --> A_2  D_2  S_2  
     e( 16 - 16) =     29.54372  eV     1   --> B_2  D_4  S_4  
     e( 17 - 17) =     29.67337  eV     1   --> A_2  D_2  S_2  
     e( 18 - 18) =     30.76535  eV     1   --> B_2  D_4  S_4  
     e( 19 - 19) =     33.88236  eV     1   --> A_1  D_1  S_1  
     e( 20 - 20) =     39.16762  eV     1   --> A_1  D_1  S_1  

 **************************************************************************

 **************************************************************************

                    xk=(   0.00833,   0.01443,   0.45391  )

     Band symmetry, C_2v (mm2)  point group:

     e(  1 -  1) =    -42.58583  eV     1   --> A_1  D_1  S_1  
     e(  2 -  2) =    -16.97841  eV     1   --> B_2  D_4  S_4  
     e(  3 -  3) =    -16.40321  eV     1   --> A_1  D_1  S_1  
     e(  4 -  4) =    -16.40224  eV     1   --> B_1  D_3  S_3  
     e(  5 -  5) =      6.70075  eV     1   --> B_2  D_4  S_4  
     e(  6 -  6) =     10.19605  eV     1   --> A_1  D_1  S_1  
     e(  7 -  7) =     16.97648  eV     1   --> A_2  D_2  S_2  
     e(  8 -  8) =     16.97700  eV     1   --> B_2  D_4  S_4  
     e(  9 -  9) =     17.23711  eV     1   --> B_1  D_3  S_3  
     e( 10 - 10) =     17.25340  eV     1   --> A_1  D_1  S_1  
     e( 11 - 11) =     17.56396  eV     1   --> A_2  D_2  S_2  
     e( 12 - 12) =     17.57015  eV     1   --> B_2  D_4  S_4  
     e( 13 - 13) =     18.54286  eV     1   --> A_1  D_1  S_1  
     e( 14 - 14) =     24.28176  eV     1   --> B_1  D_3  S_3  
     e( 15 - 15) =     27.71974  eV     1   --> A_2  D_2  S_2  
     e( 16 - 16) =     29.62985  eV     1   --> B_2  D_4  S_4  
     e( 17 - 17) =     29.66687  eV     1   --> A_2  D_2  S_2  
     e( 18 - 18) =     30.66347  eV     1   --> B_2  D_4  S_4  
     e( 19 - 19) =     33.90865  eV     1   --> A_1  D_1  S_1  
     e( 20 - 20) =     39.35184  eV     1   --> B_2  D_4  S_4  

 **************************************************************************

 **************************************************************************

                    xk=(   0.00000,   0.00000,   0.45391  )

     point group D_6h(6/mmm)
     there are 12 classes
     the character table:

       E     2C6   2C3   C2    3C2'  3C2'' i     2S3   2S6   s_h   3s_d  3s_v 
A_1g   1.00  1.00  1.00  1.00  1.00  1.00  1.00  1.00  1.00  1.00  1.00  1.00
A_2g   1.00  1.00  1.00  1.00 -1.00 -1.00  1.00  1.00  1.00  1.00 -1.00 -1.00
B_1g   1.00 -1.00  1.00 -1.00  1.00 -1.00  1.00 -1.00  1.00 -1.00  1.00 -1.00
B_2g   1.00 -1.00  1.00 -1.00 -1.00  1.00  1.00 -1.00  1.00 -1.00 -1.00  1.00
E_1g   2.00  1.00 -1.00 -2.00  0.00  0.00  2.00  1.00 -1.00 -2.00  0.00  0.00
E_2g   2.00 -1.00 -1.00  2.00  0.00  0.00  2.00 -1.00 -1.00  2.00  0.00  0.00
A_1u   1.00  1.00  1.00  1.00  1.00  1.00 -1.00 -1.00 -1.00 -1.00 -1.00 -1.00
A_2u   1.00  1.00  1.00  1.00 -1.00 -1.00 -1.00 -1.00 -1.00 -1.00  1.00  1.00
B_1u   1.00 -1.00  1.00 -1.00  1.00 -1.00 -1.00  1.00 -1.00  1.00 -1.00  1.00
B_2u   1.00 -1.00  1.00 -1.00 -1.00  1.00 -1.00  1.00 -1.00  1.00  1.00 -1.00
E_1u   2.00  1.00 -1.00 -2.00  0.00  0.00 -2.00 -1.00  1.00  2.00  0.00  0.00
E_2u   2.00 -1.00 -1.00  2.00  0.00  0.00 -2.00  1.00  1.00 -2.00  0.00  0.00

     the symmetry operations in each class and the name of the first element:

     E        1
                                                                 
     2C6      5    6
                                                                 
     2C3      7    8
                                                                 
     C2       2
                                                                 
     3C2'     4   12   11
                                                                 
     3C2''    3    9   10
                                                                 
     i       13
                                                                 
     2S3     17   18
                                                                 
     2S6     19   20
                                                                 
     s_h     14
                                                                 
     3s_d    16   24   23
                                                                 
     3s_v    15   21   22
                                                                 

     Band symmetry, D_6h(6/mmm) point group:

     e(  1 -  1) =    -42.58596  eV     1   --> A_1g           
     e(  2 -  2) =    -16.97866  eV     1   --> A_2u           
     e(  3 -  4) =    -16.40196  eV     2   --> E_1u           
     e(  5 -  5) =      6.70028  eV     1   --> A_2u           
     e(  6 -  6) =     10.18984  eV     1   --> A_1g           
     e(  7 -  8) =     17.09190  eV     2   --> E_1g           
     e(  9 - 10) =     17.24800  eV     2   --> E_2g           
     e( 11 - 12) =     17.45298  eV     2   --> E_2u           
     e( 13 - 13) =     18.54040  eV     1   --> A_1g           
     e( 14 - 14) =     24.26758  eV     1   --> B_2u           
     e( 15 - 15) =     27.71195  eV     1   --> B_1g           
     e( 16 - 17) =     29.66620  eV     2   --> E_1g           
     e( 18 - 18) =     30.62566  eV     1   --> A_2u           
     e( 19 - 19) =     33.91823  eV     1   --> A_1g           
     e( 20 - 20) =     39.35111  eV     1   --> A_2u           

 **************************************************************************
 
     BANDS        :      6.45s CPU      6.96s WALL

 
   This run was terminated on:   1:54: 7  28Apr2022            

=------------------------------------------------------------------------------=
   JOB DONE.
=------------------------------------------------------------------------------=
