
     Program PWSCF v.7.0 starts on 28Apr2022 at  1:53:33 

     This program is part of the open-source Quantum ESPRESSO suite
     for quantum simulation of materials; please cite
         "P. Giannozzi et al., J. Phys.:Condens. Matter 21 395502 (2009);
         "P. Giannozzi et al., J. Phys.:Condens. Matter 29 465901 (2017);
         "P. Giannozzi et al., J. Chem. Phys. 152 154105 (2020);
          URL http://www.quantum-espresso.org", 
     in publications or presentations arising from this work. More details at
     http://www.quantum-espresso.org/quote

     Parallel version (MPI), running on     8 processors

     MPI processes distributed on     1 nodes
     R & G space division:  proc/nbgrp/npool/nimage =       8
     2373 MiB available memory on the printing compute node when the environment starts
 
     Reading input from mob2_bands.in

     Current dimensions of program PWSCF are:
     Max number of different atomic species (ntypx) = 10
     Max number of k-points (npk) =  40000
     Max angular momentum in pseudopotentials (lmaxx) =  4

     Atomic positions and unit cell read from directory:
     ./tmp/mob2.save/
     Atomic positions from file used, from input discarded
 

     Subspace diagonalization in iterative solution of the eigenvalue problem:
     a serial algorithm will be used

 
     Parallelization info
     --------------------
     sticks:   dense  smooth     PW     G-vecs:    dense   smooth      PW
     Min          39      39     13                  649      649     123
     Max          40      40     14                  654      654     126
     Sum         313     313    109                 5197     5197     997
 
     Using Slab Decomposition
 


     bravais-lattice index     =            4
     lattice parameter (alat)  =       5.7133  a.u.
     unit-cell volume          =     177.9103 (a.u.)^3
     number of atoms/cell      =            3
     number of atomic types    =            2
     number of electrons       =        20.00
     number of Kohn-Sham states=           20
     kinetic-energy cutoff     =      36.0000  Ry
     charge density cutoff     =     144.0000  Ry
     Exchange-correlation= PBE
                           (   1   4   3   4   0   0   0)

     celldm(1)=   5.713340  celldm(2)=   0.000000  celldm(3)=   1.101540
     celldm(4)=   0.000000  celldm(5)=   0.000000  celldm(6)=   0.000000

     crystal axes: (cart. coord. in units of alat)
               a(1) = (   1.000000   0.000000   0.000000 )  
               a(2) = (  -0.500000   0.866025   0.000000 )  
               a(3) = (   0.000000   0.000000   1.101540 )  

     reciprocal axes: (cart. coord. in units 2 pi/alat)
               b(1) = (  1.000000  0.577350  0.000000 )  
               b(2) = (  0.000000  1.154701  0.000000 )  
               b(3) = (  0.000000  0.000000  0.907820 )  


     PseudoPot. # 1 for Mo read from file:
     /home/marcocarmonaga/Apps/qe-7.0/pseudo/Mo_ONCV_PBE-1.2.upf
     MD5 check sum: 2665c9f4159700498d9a5f7573bd8e9f
     Pseudo is Norm-conserving, Zval = 14.0
     Generated using ONCVPSP code by D. R. Hamann
     Using radial grid of  602 points,  6 beta functions with: 
                l(1) =   0
                l(2) =   0
                l(3) =   1
                l(4) =   1
                l(5) =   2
                l(6) =   2

     PseudoPot. # 2 for B  read from file:
     /home/marcocarmonaga/Apps/qe-7.0/pseudo/B_ONCV_PBE-1.2.upf
     MD5 check sum: eb3cbeacc2d324d57d903df00f564d27
     Pseudo is Norm-conserving, Zval =  3.0
     Generated using ONCVPSP code by D. R. Hamann
     Using radial grid of  602 points,  4 beta functions with: 
                l(1) =   0
                l(2) =   0
                l(3) =   1
                l(4) =   1

     atomic species   valence    mass     pseudopotential
        Mo            14.00    95.95000     Mo( 1.00)
        B              3.00    10.81000     B ( 1.00)

     24 Sym. Ops., with inversion, found



   Cartesian axes

     site n.     atom                  positions (alat units)
         1           Mo  tau(   1) = (   0.0000000   0.0000000   0.0000000  )
         2           B   tau(   2) = (   0.5000000   0.2886751   0.5507700  )
         3           B   tau(   3) = (   0.0000000   0.5773503   0.5507700  )

     number of k points=   261

     Number of k-points >= 100: set verbosity='high' to print them.

     Dense  grid:     5197 G-vectors     FFT dimensions: (  24,  24,  25)

     Estimated max dynamical RAM per process >       2.44 MB

     Estimated total dynamical RAM >      19.53 MB

     The potential is recalculated from file :
     ./tmp/mob2.save/charge-density

     Starting wfcs are random

     Band Structure Calculation
     Davidson diagonalization with overlap

     ethr =  5.00E-11,  avg # of iterations = 38.6

     total cpu time spent up to now is       26.6 secs

     End of band structure calculation

     Number of k-points >= 100: set verbosity='high' to print the bands.

     Writing all to output data dir ./tmp/mob2.save/
 
     init_run     :      0.01s CPU      0.04s WALL (       1 calls)
     electrons    :     22.46s CPU     23.60s WALL (       1 calls)

     Called by init_run:
     wfcinit      :      0.00s CPU      0.00s WALL (       1 calls)
     potinit      :      0.00s CPU      0.00s WALL (       1 calls)
     hinit0       :      0.01s CPU      0.03s WALL (       1 calls)

     Called by electrons:
     c_bands      :     22.46s CPU     23.60s WALL (       1 calls)
     v_of_rho     :      0.00s CPU      0.00s WALL (       1 calls)

     Called by c_bands:
     init_us_2    :      0.02s CPU      0.02s WALL (     261 calls)
     init_us_2:cp :      0.02s CPU      0.02s WALL (     261 calls)
     cegterg      :     21.63s CPU     22.52s WALL (     602 calls)

     Called by *egterg:
     cdiaghg      :      6.23s CPU      6.47s WALL (   10333 calls)
     h_psi        :     13.98s CPU     14.58s WALL (   10935 calls)
     g_psi        :      0.06s CPU      0.07s WALL (   10072 calls)

     Called by h_psi:
     h_psi:calbec :      0.47s CPU      0.49s WALL (   10935 calls)
     vloc_psi     :     13.04s CPU     13.60s WALL (   10935 calls)
     add_vuspsi   :      0.36s CPU      0.38s WALL (   10935 calls)

     General routines
     calbec       :      0.44s CPU      0.46s WALL (   10935 calls)
     fft          :      0.00s CPU      0.02s WALL (      10 calls)
     fftw         :     11.93s CPU     12.45s WALL (  254794 calls)
     davcio       :      0.03s CPU      0.24s WALL (     522 calls)
 
     Parallel routines
 
     PWSCF        :     25.59s CPU     26.94s WALL

 
   This run was terminated on:   1:54: 0  28Apr2022            

=------------------------------------------------------------------------------=
   JOB DONE.
=------------------------------------------------------------------------------=
