
     Program PWSCF v.7.0 starts on 27Apr2022 at 21: 5:38 

     This program is part of the open-source Quantum ESPRESSO suite
     for quantum simulation of materials; please cite
         "P. Giannozzi et al., J. Phys.:Condens. Matter 21 395502 (2009);
         "P. Giannozzi et al., J. Phys.:Condens. Matter 29 465901 (2017);
         "P. Giannozzi et al., J. Chem. Phys. 152 154105 (2020);
          URL http://www.quantum-espresso.org", 
     in publications or presentations arising from this work. More details at
     http://www.quantum-espresso.org/quote

     Parallel version (MPI), running on     8 processors

     MPI processes distributed on     1 nodes
     R & G space division:  proc/nbgrp/npool/nimage =       8
     2316 MiB available memory on the printing compute node when the environment starts
 
     Reading input from mob2_scf.in

     Current dimensions of program PWSCF are:
     Max number of different atomic species (ntypx) = 10
     Max number of k-points (npk) =  40000
     Max angular momentum in pseudopotentials (lmaxx) =  4

     Subspace diagonalization in iterative solution of the eigenvalue problem:
     a serial algorithm will be used

 
     Parallelization info
     --------------------
     sticks:   dense  smooth     PW     G-vecs:    dense   smooth      PW
     Min          39      39     13                  649      649     123
     Max          40      40     14                  654      654     126
     Sum         313     313    109                 5197     5197     997
 
     Using Slab Decomposition
 


     bravais-lattice index     =            4
     lattice parameter (alat)  =       5.7133  a.u.
     unit-cell volume          =     177.9103 (a.u.)^3
     number of atoms/cell      =            3
     number of atomic types    =            2
     number of electrons       =        20.00
     number of Kohn-Sham states=           20
     kinetic-energy cutoff     =      36.0000  Ry
     charge density cutoff     =     144.0000  Ry
     scf convergence threshold =      1.0E-08
     mixing beta               =       0.7000
     number of iterations used =            8  plain     mixing
     Exchange-correlation= PBE
                           (   1   4   3   4   0   0   0)

     celldm(1)=   5.713340  celldm(2)=   0.000000  celldm(3)=   1.101540
     celldm(4)=   0.000000  celldm(5)=   0.000000  celldm(6)=   0.000000

     crystal axes: (cart. coord. in units of alat)
               a(1) = (   1.000000   0.000000   0.000000 )  
               a(2) = (  -0.500000   0.866025   0.000000 )  
               a(3) = (   0.000000   0.000000   1.101540 )  

     reciprocal axes: (cart. coord. in units 2 pi/alat)
               b(1) = (  1.000000  0.577350  0.000000 )  
               b(2) = (  0.000000  1.154701  0.000000 )  
               b(3) = (  0.000000  0.000000  0.907820 )  


     PseudoPot. # 1 for Mo read from file:
     /home/marcocarmonaga/Apps/qe-7.0/pseudo/Mo_ONCV_PBE-1.2.upf
     MD5 check sum: 2665c9f4159700498d9a5f7573bd8e9f
     Pseudo is Norm-conserving, Zval = 14.0
     Generated using ONCVPSP code by D. R. Hamann
     Using radial grid of  602 points,  6 beta functions with: 
                l(1) =   0
                l(2) =   0
                l(3) =   1
                l(4) =   1
                l(5) =   2
                l(6) =   2

     PseudoPot. # 2 for B  read from file:
     /home/marcocarmonaga/Apps/qe-7.0/pseudo/B_ONCV_PBE-1.2.upf
     MD5 check sum: eb3cbeacc2d324d57d903df00f564d27
     Pseudo is Norm-conserving, Zval =  3.0
     Generated using ONCVPSP code by D. R. Hamann
     Using radial grid of  602 points,  4 beta functions with: 
                l(1) =   0
                l(2) =   0
                l(3) =   1
                l(4) =   1

     atomic species   valence    mass     pseudopotential
        Mo            14.00    95.95000     Mo( 1.00)
        B              3.00    10.81000     B ( 1.00)

     24 Sym. Ops., with inversion, found



   Cartesian axes

     site n.     atom                  positions (alat units)
         1           Mo  tau(   1) = (   0.0000000   0.0000000   0.0000000  )
         2           B   tau(   2) = (   0.5000000   0.2886751   0.5507700  )
         3           B   tau(   3) = (   0.0000000   0.5773503   0.5507700  )

     number of k points=   333  Gaussian smearing, width (Ry)=  0.0150

     Number of k-points >= 100: set verbosity='high' to print them.

     Dense  grid:     5197 G-vectors     FFT dimensions: (  24,  24,  25)

     Estimated max dynamical RAM per process >      10.86 MB

     Estimated total dynamical RAM >      86.88 MB

     Initial potential from superposition of free atoms

     starting charge      19.8751, renormalised to      20.0000
     Starting wfcs are random

     total cpu time spent up to now is        1.2 secs

     Self-consistent Calculation

     iteration #  1     ecut=    36.00 Ry     beta= 0.70
     Davidson diagonalization with overlap
     ethr =  1.00E-02,  avg # of iterations =  8.0

     total cpu time spent up to now is       15.4 secs

     total energy              =    -148.27494062 Ry
     estimated scf accuracy    <       0.51002106 Ry

     iteration #  2     ecut=    36.00 Ry     beta= 0.70
     Davidson diagonalization with overlap
     ethr =  2.55E-03,  avg # of iterations =  2.3

     total cpu time spent up to now is       19.2 secs

     total energy              =    -148.24096202 Ry
     estimated scf accuracy    <       1.75618395 Ry

     iteration #  3     ecut=    36.00 Ry     beta= 0.70
     Davidson diagonalization with overlap
     ethr =  2.55E-03,  avg # of iterations =  1.8

     total cpu time spent up to now is       22.1 secs

     total energy              =    -148.56410563 Ry
     estimated scf accuracy    <       0.00538613 Ry

     iteration #  4     ecut=    36.00 Ry     beta= 0.70
     Davidson diagonalization with overlap
     ethr =  2.69E-05,  avg # of iterations =  4.7

     total cpu time spent up to now is       26.3 secs

     total energy              =    -148.56504614 Ry
     estimated scf accuracy    <       0.00031814 Ry

     iteration #  5     ecut=    36.00 Ry     beta= 0.70
     Davidson diagonalization with overlap
     ethr =  1.59E-06,  avg # of iterations =  3.5

     total cpu time spent up to now is       29.5 secs

     total energy              =    -148.56511551 Ry
     estimated scf accuracy    <       0.00002063 Ry

     iteration #  6     ecut=    36.00 Ry     beta= 0.70
     Davidson diagonalization with overlap
     ethr =  1.03E-07,  avg # of iterations =  1.1

     total cpu time spent up to now is       32.3 secs

     total energy              =    -148.56511848 Ry
     estimated scf accuracy    <       0.00000039 Ry

     iteration #  7     ecut=    36.00 Ry     beta= 0.70
     Davidson diagonalization with overlap
     ethr =  1.94E-09,  avg # of iterations =  2.1

     total cpu time spent up to now is       35.4 secs

     total energy              =    -148.56511852 Ry
     estimated scf accuracy    <       0.00000008 Ry

     iteration #  8     ecut=    36.00 Ry     beta= 0.70
     Davidson diagonalization with overlap
     ethr =  3.87E-10,  avg # of iterations =  1.7

     total cpu time spent up to now is       38.2 secs

     End of self-consistent calculation

     Number of k-points >= 100: set verbosity='high' to print the bands.

     the Fermi energy is    19.2740 ev

!    total energy              =    -148.56511853 Ry
     estimated scf accuracy    <          3.4E-09 Ry
     smearing contrib. (-TS)   =      -0.00229014 Ry
     internal energy E=F+TS    =    -148.56282839 Ry

     The total energy is F=E-TS. E is the sum of the following terms:
     one-electron contribution =     -18.92613355 Ry
     hartree contribution      =      21.68258860 Ry
     xc contribution           =     -20.21457811 Ry
     ewald contribution        =    -131.10470534 Ry

     convergence has been achieved in   8 iterations

     Writing all to output data dir ./tmp/mob2.save/
 
     init_run     :      0.97s CPU      1.12s WALL (       1 calls)
     electrons    :     32.69s CPU     37.04s WALL (       1 calls)

     Called by init_run:
     wfcinit      :      0.92s CPU      1.01s WALL (       1 calls)
     potinit      :      0.01s CPU      0.02s WALL (       1 calls)
     hinit0       :      0.02s CPU      0.06s WALL (       1 calls)

     Called by electrons:
     c_bands      :     29.22s CPU     33.05s WALL (       8 calls)
     sum_band     :      3.45s CPU      3.88s WALL (       8 calls)
     v_of_rho     :      0.02s CPU      0.02s WALL (       9 calls)
     mix_rho      :      0.00s CPU      0.04s WALL (       8 calls)

     Called by c_bands:
     init_us_2    :      0.32s CPU      0.35s WALL (    5661 calls)
     init_us_2:cp :      0.31s CPU      0.33s WALL (    5661 calls)
     cegterg      :     28.07s CPU     31.81s WALL (    2664 calls)

     Called by *egterg:
     cdiaghg      :      5.71s CPU      6.24s WALL (   11079 calls)
     h_psi        :     19.82s CPU     22.80s WALL (   11412 calls)
     g_psi        :      0.06s CPU      0.06s WALL (    8415 calls)

     Called by h_psi:
     h_psi:calbec :      0.75s CPU      0.83s WALL (   11412 calls)
     vloc_psi     :     18.50s CPU     21.35s WALL (   11412 calls)
     add_vuspsi   :      0.43s CPU      0.48s WALL (   11412 calls)

     General routines
     calbec       :      0.72s CPU      0.80s WALL (   11412 calls)
     fft          :      0.02s CPU      0.06s WALL (      89 calls)
     ffts         :      0.00s CPU      0.00s WALL (       8 calls)
     fftw         :     20.00s CPU     23.11s WALL (  363774 calls)
 
     Parallel routines
 
     PWSCF        :     33.98s CPU     38.94s WALL

 
   This run was terminated on:  21: 6:17  27Apr2022            

=------------------------------------------------------------------------------=
   JOB DONE.
=------------------------------------------------------------------------------=
