
     Program PWSCF v.7.0 starts on 11Apr2022 at 19: 2:40 

     This program is part of the open-source Quantum ESPRESSO suite
     for quantum simulation of materials; please cite
         "P. Giannozzi et al., J. Phys.:Condens. Matter 21 395502 (2009);
         "P. Giannozzi et al., J. Phys.:Condens. Matter 29 465901 (2017);
         "P. Giannozzi et al., J. Chem. Phys. 152 154105 (2020);
          URL http://www.quantum-espresso.org", 
     in publications or presentations arising from this work. More details at
     http://www.quantum-espresso.org/quote

     Parallel version (MPI), running on     8 processors

     MPI processes distributed on     1 nodes
     R & G space division:  proc/nbgrp/npool/nimage =       8
     2505 MiB available memory on the printing compute node when the environment starts
 
     Reading input from mob2_pw.in

     Current dimensions of program PWSCF are:
     Max number of different atomic species (ntypx) = 10
     Max number of k-points (npk) =  40000
     Max angular momentum in pseudopotentials (lmaxx) =  4

     Subspace diagonalization in iterative solution of the eigenvalue problem:
     a serial algorithm will be used

 
     Parallelization info
     --------------------
     sticks:   dense  smooth     PW     G-vecs:    dense   smooth      PW
     Min          36      36     11                  589      589     113
     Max          38      38     12                  592      592     115
     Sum         295     295     91                 4723     4723     909
 
     Using Slab Decomposition
 


     bravais-lattice index     =            4
     lattice parameter (alat)  =       5.3822  a.u.
     unit-cell volume          =     162.8404 (a.u.)^3
     number of atoms/cell      =            3
     number of atomic types    =            2
     number of electrons       =        20.00
     number of Kohn-Sham states=           20
     kinetic-energy cutoff     =      36.0000  Ry
     charge density cutoff     =     144.0000  Ry
     scf convergence threshold =      1.0E-06
     mixing beta               =       0.7000
     number of iterations used =            8  plain     mixing
     Exchange-correlation= PBE
                           (   1   4   3   4   0   0   0)

     celldm(1)=   5.382220  celldm(2)=   0.000000  celldm(3)=   1.206000
     celldm(4)=   0.000000  celldm(5)=   0.000000  celldm(6)=   0.000000

     crystal axes: (cart. coord. in units of alat)
               a(1) = (   1.000000   0.000000   0.000000 )  
               a(2) = (  -0.500000   0.866025   0.000000 )  
               a(3) = (   0.000000   0.000000   1.206000 )  

     reciprocal axes: (cart. coord. in units 2 pi/alat)
               b(1) = (  1.000000  0.577350  0.000000 )  
               b(2) = (  0.000000  1.154701  0.000000 )  
               b(3) = (  0.000000  0.000000  0.829187 )  


     PseudoPot. # 1 for Mo read from file:
     /home/marcocarmonaga/Apps/qe-7.0/pseudo/Mo_ONCV_PBE-1.2.upf
     MD5 check sum: 2665c9f4159700498d9a5f7573bd8e9f
     Pseudo is Norm-conserving, Zval = 14.0
     Generated using ONCVPSP code by D. R. Hamann
     Using radial grid of  602 points,  6 beta functions with: 
                l(1) =   0
                l(2) =   0
                l(3) =   1
                l(4) =   1
                l(5) =   2
                l(6) =   2

     PseudoPot. # 2 for B  read from file:
     /home/marcocarmonaga/Apps/qe-7.0/pseudo/B_ONCV_PBE-1.2.upf
     MD5 check sum: eb3cbeacc2d324d57d903df00f564d27
     Pseudo is Norm-conserving, Zval =  3.0
     Generated using ONCVPSP code by D. R. Hamann
     Using radial grid of  602 points,  4 beta functions with: 
                l(1) =   0
                l(2) =   0
                l(3) =   1
                l(4) =   1

     atomic species   valence    mass     pseudopotential
        Mo            14.00    95.95000     Mo( 1.00)
        B              3.00    10.81000     B ( 1.00)

     24 Sym. Ops., with inversion, found



   Cartesian axes

     site n.     atom                  positions (alat units)
         1           Mo  tau(   1) = (   0.0000000   0.0000000   0.0000000  )
         2           B   tau(   2) = (   0.5000000   0.2886751   0.6030000  )
         3           B   tau(   3) = (  -0.0000000   0.5773503   0.6030000  )

     number of k points=   333  Gaussian smearing, width (Ry)=  0.0150

     Number of k-points >= 100: set verbosity='high' to print them.

     Dense  grid:     4723 G-vectors     FFT dimensions: (  24,  24,  25)

     Estimated max dynamical RAM per process >      10.11 MB

     Estimated total dynamical RAM >      80.85 MB

     Initial potential from superposition of free atoms

     starting charge      19.8751, renormalised to      20.0000
     Starting wfcs are random

     total cpu time spent up to now is        8.9 secs

     Self-consistent Calculation

     iteration #  1     ecut=    36.00 Ry     beta= 0.70
     Davidson diagonalization with overlap
     ethr =  1.00E-02,  avg # of iterations =  7.9

     total cpu time spent up to now is       21.9 secs

     total energy              =    -148.16929087 Ry
     estimated scf accuracy    <       0.66523320 Ry

     iteration #  2     ecut=    36.00 Ry     beta= 0.70
     Davidson diagonalization with overlap
     ethr =  3.33E-03,  avg # of iterations =  2.3

     total cpu time spent up to now is       26.6 secs

     total energy              =    -148.09215759 Ry
     estimated scf accuracy    <       2.34509353 Ry

     iteration #  3     ecut=    36.00 Ry     beta= 0.70
     Davidson diagonalization with overlap
     ethr =  3.33E-03,  avg # of iterations =  1.8

     total cpu time spent up to now is       31.6 secs

     total energy              =    -148.53616839 Ry
     estimated scf accuracy    <       0.01346384 Ry

     iteration #  4     ecut=    36.00 Ry     beta= 0.70
     Davidson diagonalization with overlap
     ethr =  6.73E-05,  avg # of iterations =  4.0

     total cpu time spent up to now is       40.1 secs

     total energy              =    -148.53800095 Ry
     estimated scf accuracy    <       0.00059856 Ry

     iteration #  5     ecut=    36.00 Ry     beta= 0.70
     Davidson diagonalization with overlap
     ethr =  2.99E-06,  avg # of iterations =  4.4

     total cpu time spent up to now is       44.0 secs

     total energy              =    -148.53813180 Ry
     estimated scf accuracy    <       0.00002330 Ry

     iteration #  6     ecut=    36.00 Ry     beta= 0.70
     Davidson diagonalization with overlap
     ethr =  1.16E-07,  avg # of iterations =  1.7

     total cpu time spent up to now is       48.0 secs

     End of self-consistent calculation

     Number of k-points >= 100: set verbosity='high' to print the bands.

     the Fermi energy is    20.9745 ev

!    total energy              =    -148.53813496 Ry
     estimated scf accuracy    <       0.00000061 Ry
     smearing contrib. (-TS)   =      -0.00234050 Ry
     internal energy E=F+TS    =    -148.53579446 Ry

     The total energy is F=E-TS. E is the sum of the following terms:
     one-electron contribution =     -13.78567924 Ry
     hartree contribution      =      20.48242273 Ry
     xc contribution           =     -20.45607051 Ry
     ewald contribution        =    -134.77646743 Ry

     convergence has been achieved in   6 iterations

     Writing all to output data dir ./tmp/mob2.save/
 
     init_run     :      5.41s CPU      8.46s WALL (       1 calls)
     electrons    :     30.49s CPU     39.23s WALL (       1 calls)

     Called by init_run:
     wfcinit      :      5.20s CPU      8.11s WALL (       1 calls)
     potinit      :      0.14s CPU      0.18s WALL (       1 calls)
     hinit0       :      0.05s CPU      0.14s WALL (       1 calls)

     Called by electrons:
     c_bands      :     27.59s CPU     35.18s WALL (       6 calls)
     sum_band     :      2.87s CPU      3.97s WALL (       6 calls)
     v_of_rho     :      0.11s CPU      0.15s WALL (       7 calls)
     mix_rho      :      0.00s CPU      0.00s WALL (       6 calls)

     Called by c_bands:
     init_us_2    :      0.23s CPU      0.26s WALL (    4329 calls)
     init_us_2:cp :      0.22s CPU      0.25s WALL (    4329 calls)
     cegterg      :     26.27s CPU     33.71s WALL (    1998 calls)

     Called by *egterg:
     cdiaghg      :      4.92s CPU      5.74s WALL (    9330 calls)
     h_psi        :     22.23s CPU     30.67s WALL (    9663 calls)
     g_psi        :      0.04s CPU      0.04s WALL (    7332 calls)

     Called by h_psi:
     h_psi:calbec :      0.91s CPU      1.23s WALL (    9663 calls)
     vloc_psi     :     20.88s CPU     28.95s WALL (    9663 calls)
     add_vuspsi   :      0.34s CPU      0.38s WALL (    9663 calls)

     General routines
     calbec       :      0.88s CPU      1.20s WALL (    9663 calls)
     fft          :      0.07s CPU      0.20s WALL (      69 calls)
     ffts         :      0.00s CPU      0.00s WALL (       6 calls)
     fftw         :     22.18s CPU     31.16s WALL (  289578 calls)
 
     Parallel routines
 
     PWSCF        :     36.78s CPU     48.88s WALL

 
   This run was terminated on:  19: 3:29  11Apr2022            

=------------------------------------------------------------------------------=
   JOB DONE.
=------------------------------------------------------------------------------=
